/*--------------------------------*- C++ -*----------------------------------*\
| =========                 |                                                 |
| \\      /  F ield         | OpenFOAM: The Open Source CFD Toolbox           |
|  \\    /   O peration     | Version:  2312                                  |
|   \\  /    A nd           | Website:  www.openfoam.com                      |
|    \\/     M anipulation  |                                                 |
\*---------------------------------------------------------------------------*/
FoamFile
{
    version     2.0;
    format      ascii;
    arch        "LSB;label=32;scalar=64";
    class       volScalarField;
    location    "4";
    object      alpha.water;
}
// * * * * * * * * * * * * * * * * * * * * * * * * * * * * * * * * * * * * * //

dimensions      [0 0 0 0 0 0 0];

internalField   nonuniform List<scalar> 
50000
(
0.839482
0.836628
0.816294
0.795268
0.75723
0.751295
0.784313
0.806782
0.794641
0.794889
0.808735
0.797863
0.792465
0.793295
0.802297
0.807051
0.807042
0.804438
0.798321
0.798103
0.795795
0.79638
0.797156
0.802854
0.808649
0.805432
0.802062
0.797371
0.797563
0.795928
0.796183
0.797151
0.79509
0.804426
0.803862
0.801517
0.79786
0.796476
0.79703
0.798358
0.804457
0.798917
0.797792
0.796923
0.793347
0.800552
0.794303
0.788515
0.787699
0.791438
0.786882
0.788893
0.791514
0.799426
0.788442
0.797023
0.79736
0.794161
0.802666
0.802862
0.801667
0.802226
0.799698
0.796487
0.795726
0.796826
0.798634
0.803163
0.803051
0.797165
0.795872
0.797724
0.79675
0.802523
0.805375
0.803488
0.80162
0.796977
0.79708
0.796936
0.795708
0.796736
0.799275
0.802162
0.80794
0.806097
0.805452
0.795643
0.796871
0.794235
0.793023
0.796573
0.806256
0.806955
0.807513
0.801989
0.80211
0.797271
0.793709
0.812961
0.931281
0.928635
0.913975
0.891384
0.85056
0.794467
0.797507
0.843943
0.876758
0.871405
0.844848
0.839195
0.845914
0.839295
0.836712
0.841898
0.839159
0.837099
0.83688
0.840559
0.840635
0.839329
0.838419
0.836541
0.837476
0.838051
0.835796
0.835689
0.839255
0.840703
0.840144
0.839244
0.833779
0.836097
0.837684
0.835037
0.834523
0.840216
0.839958
0.833434
0.836424
0.834213
0.83843
0.839106
0.830002
0.830853
0.828181
0.825387
0.823652
0.82552
0.823461
0.825281
0.82646
0.82934
0.828249
0.838923
0.838817
0.83063
0.833072
0.834564
0.833636
0.835058
0.834192
0.836294
0.83974
0.839968
0.836357
0.837262
0.836549
0.838452
0.84054
0.839521
0.835646
0.835656
0.838044
0.83809
0.836119
0.837886
0.838648
0.83909
0.84104
0.841214
0.838663
0.836798
0.83793
0.842092
0.840536
0.835214
0.846996
0.855434
0.843617
0.835233
0.838594
0.842364
0.840269
0.838273
0.837795
0.837728
0.842094
0.840295
0.939129
0.933272
0.93596
0.925098
0.893261
0.767281
0.790477
0.868878
0.884026
0.876679
0.873386
0.861834
0.87339
0.864018
0.862
0.870568
0.872327
0.868495
0.868511
0.872441
0.872495
0.871918
0.870411
0.866846
0.86951
0.871665
0.869398
0.867734
0.871852
0.871415
0.871641
0.871776
0.866624
0.869153
0.870661
0.868
0.869227
0.872461
0.872443
0.866806
0.868734
0.868344
0.871556
0.871924
0.866708
0.866682
0.866055
0.864407
0.862468
0.862755
0.862653
0.86445
0.865118
0.865408
0.865433
0.871786
0.87182
0.866321
0.867609
0.867539
0.867533
0.868047
0.86726
0.870123
0.872252
0.872077
0.869626
0.869683
0.868779
0.870231
0.87279
0.872195
0.867759
0.869207
0.872086
0.871147
0.866894
0.870304
0.871381
0.871764
0.873
0.872954
0.871714
0.867832
0.870779
0.87298
0.863697
0.861819
0.872626
0.874345
0.872626
0.858673
0.866594
0.871121
0.871299
0.869431
0.867761
0.869634
0.868681
0.871257
0.93343
0.943399
0.933419
0.931483
0.872727
0.749683
0.768167
0.877294
0.87668
0.887042
0.874699
0.868914
0.874457
0.868217
0.861953
0.872683
0.872424
0.868663
0.868542
0.872551
0.872442
0.871875
0.870187
0.866843
0.871078
0.871828
0.868651
0.867716
0.871823
0.873036
0.872821
0.871784
0.866625
0.868616
0.870474
0.867989
0.868559
0.872687
0.872453
0.866795
0.868958
0.868322
0.871351
0.872093
0.866826
0.866122
0.865928
0.864013
0.862417
0.863183
0.862572
0.863892
0.864835
0.865251
0.865864
0.87189
0.871695
0.866306
0.866641
0.867982
0.867548
0.867671
0.867242
0.87002
0.872476
0.872354
0.869575
0.8698
0.868763
0.87038
0.873248
0.872029
0.867741
0.868672
0.872173
0.870498
0.866884
0.870076
0.871144
0.871781
0.872955
0.873242
0.871112
0.867817
0.870631
0.872773
0.865643
0.861814
0.875258
0.872629
0.87332
0.85868
0.867213
0.873716
0.871131
0.86933
0.8684
0.8697
0.868674
0.871811
0.946599
0.933315
0.941876
0.928742
0.835615
0.767286
0.774249
0.876602
0.89665
0.8766
0.874956
0.874084
0.873985
0.873499
0.8634
0.872426
0.873645
0.871774
0.872804
0.872442
0.873925
0.872443
0.872791
0.869742
0.873471
0.872772
0.873006
0.871016
0.874274
0.873705
0.874544
0.873704
0.870521
0.87327
0.873635
0.872038
0.873751
0.874472
0.873751
0.870897
0.872792
0.872576
0.87441
0.873986
0.873762
0.873515
0.873338
0.872159
0.868181
0.868954
0.868231
0.872214
0.872723
0.873003
0.873265
0.874141
0.874666
0.870684
0.872271
0.872054
0.872302
0.872054
0.871272
0.874013
0.873668
0.874325
0.873668
0.873685
0.872509
0.873965
0.873694
0.874256
0.871269
0.873634
0.873968
0.874536
0.870431
0.872955
0.873516
0.872956
0.874464
0.872956
0.873604
0.870988
0.872773
0.874981
0.8718
0.866069
0.872628
0.880304
0.872628
0.862319
0.86938
0.871134
0.873814
0.871172
0.871603
0.871264
0.869812
0.871328
0.933465
0.944205
0.933457
0.925163
0.817888
0.752289
0.790667
0.886643
0.8766
0.891366
0.873478
0.873592
0.877058
0.871729
0.863349
0.872114
0.872431
0.871804
0.872192
0.874613
0.872443
0.874051
0.872439
0.869773
0.872777
0.874343
0.872101
0.870996
0.873704
0.875428
0.873705
0.87447
0.870497
0.872594
0.874005
0.872015
0.872663
0.87376
0.874783
0.870865
0.872544
0.872658
0.873985
0.874923
0.871284
0.871037
0.870983
0.869258
0.868368
0.868132
0.86863
0.869199
0.87012
0.870506
0.870669
0.87498
0.874141
0.870677
0.87122
0.872193
0.871922
0.872499
0.871273
0.873399
0.874946
0.873686
0.87367
0.872829
0.872504
0.873527
0.875459
0.873694
0.871251
0.872476
0.87498
0.873973
0.870429
0.87316
0.872957
0.874261
0.872957
0.875394
0.872956
0.870935
0.873622
0.872777
0.871786
0.865823
0.876201
0.872629
0.874491
0.86139
0.867937
0.875236
0.871172
0.87204
0.871266
0.872009
0.869826
0.873729
0.946973
0.933464
0.946373
0.904926
0.774903
0.767294
0.815274
0.876522
0.897593
0.87652
0.872328
0.873804
0.873405
0.872815
0.864542
0.872432
0.873692
0.872437
0.873086
0.872443
0.874889
0.872443
0.873075
0.871599
0.874346
0.872806
0.873097
0.872292
0.874933
0.873705
0.875746
0.873705
0.87356
0.873758
0.87407
0.873129
0.87376
0.875395
0.87376
0.872466
0.87409
0.873985
0.874948
0.874001
0.872587
0.873051
0.872561
0.872998
0.871011
0.870907
0.871179
0.872809
0.872872
0.872809
0.872417
0.874143
0.875144
0.872329
0.873346
0.873677
0.873346
0.873538
0.872562
0.874319
0.873686
0.875194
0.873688
0.873807
0.873682
0.874209
0.873694
0.874976
0.872691
0.874048
0.873972
0.874319
0.870357
0.872956
0.87439
0.872957
0.875458
0.872958
0.874534
0.872254
0.872778
0.875405
0.872778
0.865852
0.872628
0.881655
0.872628
0.86058
0.867913
0.871172
0.87446
0.871266
0.872572
0.871334
0.871073
0.871391
0.933465
0.947522
0.933462
0.884361
0.767256
0.773096
0.83665
0.891257
0.87652
0.890174
0.869388
0.873405
0.878284
0.872687
0.865816
0.873796
0.872437
0.8726
0.872441
0.874851
0.872451
0.874377
0.872443
0.871281
0.872807
0.874409
0.872828
0.87226
0.873705
0.876052
0.873705
0.874901
0.872377
0.872406
0.874034
0.873106
0.874183
0.873767
0.87527
0.872422
0.873505
0.874131
0.874001
0.875278
0.873043
0.872499
0.872971
0.871307
0.870733
0.871545
0.870733
0.871582
0.872207
0.872619
0.872402
0.875252
0.874143
0.872335
0.873034
0.873163
0.873767
0.873366
0.872576
0.873667
0.875404
0.873686
0.874518
0.873308
0.873401
0.873693
0.876004
0.873694
0.872664
0.872857
0.875106
0.873974
0.870672
0.872916
0.872957
0.874697
0.872958
0.875436
0.872956
0.872167
0.87328
0.872781
0.871029
0.866397
0.877768
0.872629
0.874722
0.858691
0.867816
0.875025
0.871265
0.872756
0.871336
0.872391
0.871021
0.873916
0.946591
0.933482
0.947004
0.863905
0.761155
0.790588
0.856063
0.876442
0.897615
0.876442
0.868999
0.875141
0.873405
0.871606
0.865932
0.872437
0.87419
0.872441
0.873433
0.872451
0.87509
0.872452
0.872896
0.870653
0.873274
0.872834
0.873064
0.872865
0.875244
0.873706
0.876052
0.873705
0.873887
0.872451
0.874091
0.873418
0.873771
0.875699
0.873767
0.873213
0.873821
0.874001
0.875243
0.874001
0.873845
0.873661
0.8738
0.873625
0.872182
0.872563
0.872216
0.87322
0.873583
0.87324
0.873334
0.874143
0.875253
0.873261
0.873897
0.87384
0.874034
0.87384
0.873028
0.874499
0.873668
0.875468
0.873686
0.873412
0.873691
0.874415
0.873695
0.875248
0.873694
0.872679
0.873975
0.874552
0.870782
0.872957
0.873923
0.872958
0.875668
0.872959
0.874829
0.87218
0.872782
0.875598
0.870512
0.867139
0.872628
0.882432
0.872627
0.857865
0.868092
0.871265
0.873522
0.871335
0.873036
0.871396
0.871551
0.871393
0.933486
0.950292
0.93348
0.8487
0.767248
0.805381
0.870068
0.892281
0.876443
0.89019
0.869206
0.873404
0.878621
0.870628
0.866206
0.873289
0.872439
0.872792
0.872451
0.875094
0.872461
0.874491
0.872452
0.870363
0.872807
0.874217
0.872833
0.872987
0.873706
0.876054
0.873706
0.87497
0.873117
0.873159
0.873994
0.873399
0.874462
0.873772
0.875468
0.873161
0.873434
0.874442
0.874001
0.875593
0.87347
0.87379
0.873413
0.872906
0.872285
0.872103
0.872336
0.872992
0.873006
0.873635
0.873228
0.875569
0.874143
0.873245
0.873316
0.874097
0.873857
0.87389
0.873054
0.873635
0.875493
0.873668
0.874606
0.873347
0.873499
0.873694
0.876048
0.873695
0.8735
0.872613
0.875016
0.873298
0.8707
0.873099
0.872958
0.875128
0.872959
0.875756
0.872959
0.872204
0.873627
0.87296
0.871527
0.866962
0.877744
0.872629
0.87498
0.858689
0.867752
0.875769
0.871337
0.872606
0.871396
0.873036
0.871393
0.873632
0.946045
0.933486
0.944518
0.832606
0.765208
0.820061
0.877397
0.876364
0.897275
0.876364
0.868336
0.877368
0.873404
0.871287
0.866357
0.872438
0.874165
0.872437
0.873797
0.872461
0.875173
0.872461
0.873129
0.870206
0.872994
0.872806
0.872192
0.873669
0.875367
0.873706
0.876178
0.873705
0.873867
0.872225
0.874052
0.873561
0.873777
0.875723
0.873772
0.87383
0.873617
0.874001
0.875356
0.874011
0.874423
0.873999
0.874222
0.873996
0.872941
0.872842
0.872974
0.873931
0.873817
0.873947
0.873836
0.874154
0.875485
0.874143
0.873542
0.874236
0.874138
0.874059
0.873166
0.874535
0.873636
0.875472
0.873667
0.87367
0.873216
0.874454
0.873695
0.875371
0.873694
0.873214
0.873977
0.87425
0.871173
0.872957
0.874744
0.872959
0.875767
0.87296
0.87479
0.872136
0.872957
0.875602
0.870455
0.867736
0.872626
0.882924
0.872626
0.858484
0.866965
0.871337
0.873947
0.871326
0.873279
0.871397
0.871691
0.871539
0.933486
0.950365
0.933482
0.819415
0.768809
0.834533
0.876284
0.89223
0.876365
0.887721
0.867598
0.873405
0.878208
0.869886
0.866463
0.873169
0.872449
0.872836
0.872462
0.87495
0.872465
0.874244
0.87176
0.870473
0.872505
0.874008
0.8718
0.873497
0.873706
0.876197
0.873706
0.875101
0.87348
0.872231
0.873965
0.873541
0.874517
0.873778
0.87527
0.873491
0.873516
0.874469
0.874011
0.875528
0.873943
0.874072
0.87387
0.873577
0.872769
0.87319
0.872769
0.873426
0.873891
0.873805
0.873854
0.875528
0.874154
0.87393
0.873442
0.873945
0.87426
0.873713
0.87323
0.8736
0.875426
0.873636
0.874559
0.873629
0.873227
0.873695
0.876039
0.873695
0.873854
0.873162
0.874992
0.873863
0.871784
0.873106
0.872958
0.874933
0.87296
0.875541
0.872959
0.872212
0.872757
0.872962
0.870828
0.867628
0.877689
0.872628
0.876048
0.860128
0.864025
0.873945
0.871398
0.872407
0.871396
0.873153
0.871542
0.873915
0.945705
0.933494
0.939613
0.808914
0.773187
0.843146
0.880701
0.876286
0.896232
0.876285
0.867945
0.875991
0.873404
0.868317
0.866643
0.872449
0.873739
0.872461
0.873433
0.872466
0.874967
0.872465
0.872755
0.870513
0.872892
0.872776
0.87269
0.873693
0.875491
0.873706
0.875955
0.873705
0.873788
0.872823
0.874034
0.873793
0.873784
0.875709
0.873778
0.873852
0.872676
0.87401
0.875382
0.874078
0.8745
0.874012
0.874065
0.874069
0.873194
0.873418
0.87321
0.874141
0.874218
0.874152
0.87434
0.87416
0.875503
0.874153
0.873539
0.874223
0.874138
0.87382
0.873173
0.874487
0.8736
0.875424
0.873635
0.872879
0.873293
0.874444
0.873696
0.875508
0.873695
0.873193
0.873976
0.8734
0.871342
0.872599
0.874271
0.87296
0.875657
0.87296
0.875251
0.872469
0.872962
0.875171
0.871733
0.868057
0.872624
0.882699
0.872625
0.860943
0.863721
0.871399
0.873623
0.871399
0.873016
0.871542
0.872704
0.871544
0.933496
0.95019
0.93349
0.800961
0.780181
0.85104
0.876206
0.892049
0.876287
0.886361
0.868444
0.873406
0.87811
0.868592
0.866207
0.873615
0.872462
0.873226
0.872466
0.875104
0.872466
0.874915
0.872223
0.870551
0.872623
0.873922
0.871656
0.872969
0.873706
0.876234
0.873706
0.874948
0.87353
0.871947
0.873304
0.873697
0.874541
0.873778
0.875437
0.87354
0.872649
0.874495
0.874078
0.875541
0.87411
0.874045
0.874105
0.873835
0.873217
0.873154
0.873293
0.873965
0.874037
0.874208
0.874077
0.87553
0.87416
0.87423
0.873463
0.874125
0.874309
0.873654
0.87323
0.873563
0.87534
0.8736
0.874631
0.872749
0.873405
0.873695
0.876033
0.873696
0.873994
0.873413
0.874672
0.873598
0.870697
0.873048
0.872958
0.875321
0.87296
0.875983
0.87296
0.872441
0.87299
0.872962
0.871656
0.867943
0.876292
0.872625
0.875876
0.861998
0.863141
0.873675
0.8714
0.872802
0.871542
0.873158
0.871544
0.874391
0.945527
0.933538
0.929546
0.788828
0.786087
0.85813
0.881891
0.876207
0.895617
0.876206
0.868113
0.877381
0.873406
0.868491
0.866338
0.87246
0.873331
0.872466
0.874424
0.872467
0.875256
0.872466
0.872416
0.871384
0.872706
0.872747
0.8717
0.873705
0.875672
0.873706
0.876186
0.873705
0.873505
0.871921
0.87377
0.87381
0.873777
0.875528
0.873772
0.87379
0.873316
0.874078
0.875353
0.87412
0.874471
0.874024
0.87426
0.874107
0.873309
0.873444
0.873439
0.874201
0.874222
0.874165
0.87454
0.87419
0.875522
0.874159
0.873666
0.874162
0.874125
0.873744
0.873326
0.874434
0.873564
0.875182
0.873599
0.873617
0.872629
0.874446
0.873696
0.875404
0.873695
0.872739
0.873971
0.87396
0.870507
0.872955
0.874923
0.87296
0.876027
0.87296
0.874702
0.870385
0.871321
0.874919
0.871134
0.868168
0.87264
0.882246
0.872621
0.86476
0.863145
0.871401
0.874198
0.871334
0.87297
0.871544
0.872539
0.871548
0.933539
0.950113
0.921078
0.784147
0.790714
0.862333
0.876126
0.892358
0.876207
0.884148
0.867902
0.873408
0.877492
0.867993
0.866623
0.872757
0.872461
0.872702
0.872466
0.875143
0.872468
0.874395
0.872463
0.870738
0.872687
0.873498
0.872265
0.873763
0.873706
0.876008
0.873706
0.875138
0.873262
0.872525
0.873864
0.87377
0.874518
0.873772
0.875395
0.873496
0.872664
0.874494
0.87412
0.875485
0.874144
0.874045
0.874118
0.874113
0.873361
0.873592
0.873419
0.874103
0.87422
0.874215
0.874193
0.875506
0.87419
0.874424
0.873511
0.874101
0.874274
0.87367
0.873219
0.873531
0.875268
0.873564
0.874363
0.872945
0.87263
0.873696
0.876054
0.873696
0.874195
0.87274
0.874405
0.873965
0.870235
0.872254
0.872958
0.874995
0.87296
0.876046
0.87296
0.870577
0.872063
0.872963
0.870007
0.867928
0.875984
0.87265
0.875578
0.866204
0.863394
0.87356
0.87155
0.872561
0.871524
0.872895
0.870382
0.874459
0.945043
0.933538
0.913729
0.783989
0.798284
0.866232
0.882379
0.876127
0.894521
0.876125
0.867869
0.875538
0.873407
0.868242
0.866544
0.872457
0.873328
0.872464
0.873997
0.872469
0.875268
0.872475
0.872341
0.870421
0.872445
0.872712
0.871861
0.873387
0.87562
0.873706
0.876089
0.873705
0.873296
0.87162
0.873355
0.873325
0.873771
0.875634
0.873767
0.873588
0.872661
0.87412
0.875328
0.874144
0.874479
0.874167
0.874269
0.874167
0.873432
0.873712
0.873603
0.874222
0.874261
0.874177
0.874552
0.874211
0.875489
0.87419
0.87352
0.874146
0.874101
0.873753
0.873153
0.874383
0.873532
0.875348
0.873563
0.873008
0.873251
0.8745
0.873696
0.875367
0.873695
0.873208
0.873967
0.873758
0.870354
0.871751
0.874297
0.87296
0.876102
0.87296
0.875284
0.870561
0.871982
0.874162
0.870362
0.869045
0.872675
0.880344
0.87265
0.867029
0.863358
0.87155
0.874313
0.871549
0.872642
0.871525
0.871099
0.87155
0.933496
0.948694
0.90325
0.784097
0.809332
0.870633
0.876044
0.891736
0.876126
0.883014
0.868687
0.873411
0.876821
0.868228
0.867086
0.872634
0.872461
0.872707
0.872468
0.875009
0.87248
0.874373
0.871546
0.870427
0.872685
0.873151
0.871845
0.873794
0.873706
0.876068
0.873706
0.874882
0.873249
0.871611
0.873774
0.873065
0.874605
0.873767
0.875177
0.873415
0.873195
0.874453
0.87412
0.875423
0.874144
0.873946
0.87418
0.874181
0.873482
0.873601
0.873621
0.874225
0.874247
0.874215
0.874225
0.875461
0.874211
0.874423
0.873341
0.873531
0.874224
0.87369
0.873106
0.873505
0.875232
0.873532
0.874557
0.87353
0.872619
0.873696
0.87579
0.873696
0.874026
0.872544
0.874522
0.872915
0.870445
0.871977
0.872958
0.875597
0.87296
0.876351
0.872959
0.870917
0.870931
0.87279
0.870138
0.868893
0.874876
0.872685
0.876186
0.868341
0.86464
0.872645
0.871551
0.872858
0.871551
0.872974
0.869287
0.874447
0.944205
0.933494
0.895102
0.784312
0.818695
0.874944
0.882247
0.876044
0.893594
0.876043
0.869433
0.87646
0.87341
0.867607
0.867325
0.87246
0.873453
0.872466
0.874574
0.87248
0.875201
0.872494
0.871994
0.870288
0.872292
0.872686
0.872482
0.873647
0.875521
0.873706
0.87602
0.873705
0.872428
0.872059
0.873756
0.873853
0.873764
0.875551
0.87376
0.873463
0.872617
0.874077
0.875218
0.87412
0.874437
0.873875
0.874277
0.874181
0.873779
0.874171
0.874228
0.874239
0.874278
0.874239
0.87455
0.874225
0.875469
0.874211
0.873333
0.874008
0.87408
0.873778
0.873108
0.874389
0.873506
0.875321
0.873531
0.873172
0.87261
0.874302
0.873697
0.875546
0.873696
0.872521
0.873966
0.873524
0.870449
0.872466
0.874648
0.872959
0.876024
0.87296
0.87498
0.87086
0.870913
0.874455
0.869966
0.869071
0.872773
0.880329
0.872685
0.870772
0.866774
0.871551
0.874313
0.871552
0.872817
0.871547
0.871086
0.871547
0.933486
0.946005
0.886502
0.784584
0.825805
0.876425
0.875961
0.892134
0.876044
0.881086
0.86969
0.873416
0.875817
0.865886
0.867052
0.872803
0.872464
0.87295
0.87248
0.875015
0.872499
0.874515
0.871525
0.8703
0.872165
0.873236
0.872137
0.872991
0.873706
0.876019
0.873706
0.874708
0.872414
0.872685
0.873838
0.873165
0.874401
0.87376
0.875075
0.873364
0.872605
0.874304
0.874078
0.875282
0.874119
0.873779
0.874217
0.874217
0.873751
0.873754
0.873751
0.874268
0.874248
0.87416
0.874225
0.875408
0.874211
0.874395
0.873326
0.874006
0.874055
0.873693
0.873106
0.87349
0.875361
0.873506
0.874422
0.873069
0.873207
0.873696
0.87588
0.873697
0.874271
0.872784
0.874491
0.873964
0.870298
0.872758
0.872958
0.874961
0.87296
0.876216
0.872957
0.870505
0.87155
0.872788
0.868622
0.870486
0.874652
0.872775
0.87651
0.870601
0.86644
0.871917
0.871555
0.872848
0.871545
0.872763
0.869533
0.873517
0.94352
0.933484
0.875505
0.788135
0.832935
0.875877
0.884088
0.875962
0.892417
0.87596
0.870207
0.874493
0.873415
0.866435
0.867972
0.872463
0.873302
0.872475
0.874339
0.872499
0.875059
0.87251
0.870341
0.87047
0.872842
0.872655
0.872121
0.873583
0.875586
0.873706
0.875859
0.873705
0.873106
0.872638
0.873745
0.873301
0.873757
0.875304
0.873751
0.873351
0.873149
0.87401
0.875043
0.874078
0.874319
0.873785
0.874277
0.874319
0.874245
0.874087
0.874266
0.874242
0.874285
0.874042
0.874513
0.874211
0.875399
0.87419
0.873376
0.87374
0.874038
0.87378
0.873139
0.874441
0.87349
0.875341
0.873505
0.873585
0.872508
0.874204
0.873697
0.875402
0.873696
0.873248
0.873965
0.873555
0.870295
0.872217
0.874257
0.872959
0.875767
0.872959
0.874798
0.870491
0.872655
0.874798
0.868308
0.869662
0.872775
0.87938
0.872775
0.868484
0.866209
0.871004
0.874152
0.871555
0.872397
0.871552
0.87108
0.871547
0.933486
0.943991
0.869282
0.787862
0.837612
0.876895
0.875879
0.891332
0.875961
0.880156
0.871024
0.873416
0.875414
0.865378
0.868485
0.872829
0.872472
0.872966
0.872498
0.875171
0.872513
0.874278
0.87033
0.870833
0.872413
0.873167
0.872571
0.873391
0.873706
0.875737
0.873706
0.87464
0.872993
0.871847
0.873504
0.873746
0.874582
0.873751
0.875132
0.873329
0.872343
0.874307
0.874011
0.875099
0.874076
0.873779
0.874352
0.87418
0.873914
0.873691
0.873848
0.874278
0.874269
0.874043
0.874209
0.875315
0.87419
0.874301
0.873318
0.873287
0.87417
0.87369
0.873094
0.87349
0.875165
0.873491
0.874428
0.872824
0.872535
0.873697
0.875885
0.873697
0.873962
0.873399
0.87437
0.872352
0.870309
0.87175
0.872957
0.875461
0.872959
0.876298
0.872956
0.870767
0.872724
0.872786
0.868438
0.870081
0.875196
0.872775
0.875136
0.864206
0.866247
0.87172
0.871557
0.872678
0.871555
0.87256
0.869776
0.873637
0.943601
0.933483
0.869007
0.788126
0.84139
0.875793
0.883224
0.875879
0.890375
0.875877
0.873317
0.87428
0.873416
0.866436
0.868418
0.872192
0.873476
0.872497
0.873713
0.872513
0.874854
0.872513
0.870341
0.871724
0.872295
0.872631
0.872165
0.872553
0.875317
0.873706
0.875607
0.873702
0.872021
0.871844
0.873393
0.8731
0.873747
0.875362
0.873739
0.873426
0.872339
0.873986
0.875098
0.874011
0.874162
0.873786
0.874431
0.874355
0.874372
0.873559
0.874275
0.874263
0.874285
0.874045
0.874456
0.87419
0.875266
0.874142
0.873359
0.873259
0.874025
0.873758
0.873068
0.874371
0.873491
0.875281
0.873491
0.873047
0.873032
0.874289
0.873697
0.875379
0.873696
0.872734
0.873964
0.87367
0.870409
0.870624
0.874464
0.872958
0.876011
0.872958
0.875171
0.870899
0.87233
0.87463
0.868753
0.872624
0.872775
0.87896
0.872774
0.863342
0.866522
0.871557
0.873467
0.871557
0.872398
0.871554
0.87107
0.87167
0.933485
0.944239
0.865542
0.792284
0.843419
0.877733
0.875795
0.891613
0.875878
0.87908
0.873144
0.873417
0.874487
0.865549
0.868743
0.872804
0.872493
0.872996
0.872512
0.874859
0.872514
0.873843
0.870734
0.871214
0.872599
0.873177
0.872136
0.873196
0.873676
0.875598
0.873703
0.874434
0.872458
0.872155
0.873447
0.872985
0.874351
0.873739
0.874899
0.873055
0.872672
0.874439
0.873986
0.875168
0.874007
0.87378
0.874363
0.874338
0.873951
0.873552
0.873926
0.874257
0.874261
0.874045
0.874188
0.875166
0.874143
0.874417
0.873412
0.873613
0.874163
0.873672
0.87299
0.87349
0.875288
0.873491
0.874616
0.87349
0.872567
0.873697
0.875707
0.873697
0.874069
0.872723
0.874504
0.873963
0.870697
0.870526
0.872956
0.874887
0.872958
0.876115
0.872955
0.870869
0.872348
0.872783
0.869814
0.872774
0.875427
0.872775
0.87491
0.864162
0.867593
0.872014
0.871559
0.872591
0.871557
0.872064
0.870203
0.873794
0.942859
0.933474
0.861519
0.791184
0.844962
0.875709
0.884333
0.875796
0.890678
0.875742
0.87046
0.874502
0.873417
0.866434
0.868318
0.872493
0.873264
0.872511
0.8744
0.872513
0.874989
0.872513
0.871581
0.871532
0.87299
0.872599
0.872275
0.872783
0.875382
0.873676
0.875598
0.873691
0.872511
0.872622
0.873071
0.873524
0.873734
0.87525
0.873724
0.872923
0.873203
0.873975
0.875116
0.873986
0.874288
0.873791
0.874467
0.874421
0.874321
0.873561
0.874275
0.874263
0.874285
0.874071
0.874328
0.874143
0.875396
0.874142
0.873474
0.873943
0.874015
0.873732
0.872982
0.874259
0.87349
0.875075
0.873491
0.873115
0.872534
0.874295
0.873698
0.875452
0.873696
0.873378
0.873963
0.873589
0.871974
0.870546
0.87423
0.872957
0.875783
0.872957
0.874883
0.871305
0.872758
0.874684
0.870264
0.873892
0.872774
0.877637
0.872772
0.863406
0.868357
0.871559
0.87357
0.871559
0.872374
0.871625
0.871062
0.871672
0.933461
0.94428
0.861973
0.790914
0.846734
0.876202
0.875711
0.890547
0.875792
0.875715
0.870039
0.873417
0.874508
0.867512
0.868535
0.872831
0.872509
0.872987
0.87251
0.875053
0.872514
0.874158
0.87117
0.871896
0.872301
0.873045
0.872221
0.872263
0.873676
0.875582
0.873676
0.874252
0.872508
0.872775
0.873428
0.872596
0.874201
0.873724
0.874745
0.872778
0.873157
0.874317
0.873975
0.875195
0.873981
0.873785
0.874433
0.874351
0.873962
0.873555
0.87399
0.874225
0.874288
0.874072
0.874142
0.875308
0.874143
0.874385
0.873041
0.873993
0.874103
0.873658
0.872977
0.873489
0.87525
0.873491
0.874559
0.873034
0.873138
0.873697
0.875562
0.873697
0.874061
0.872624
0.874455
0.872341
0.87215
0.870527
0.872955
0.87513
0.872957
0.87634
0.872954
0.871285
0.872627
0.87278
0.870206
0.872773
0.87566
0.872773
0.874129
0.864162
0.868224
0.872856
0.87156
0.872541
0.871669
0.871898
0.870648
0.873705
0.942035
0.933447
0.861572
0.792158
0.84754
0.875623
0.883366
0.875712
0.887538
0.874346
0.869862
0.875149
0.873418
0.868879
0.868334
0.872507
0.873067
0.872511
0.873121
0.872513
0.874895
0.872513
0.871071
0.871787
0.872757
0.872573
0.872259
0.872747
0.87545
0.873676
0.875479
0.873674
0.872609
0.871881
0.873393
0.872714
0.873718
0.874982
0.873707
0.873512
0.872531
0.873975
0.875141
0.873975
0.874369
0.873804
0.874467
0.87444
0.874182
0.873576
0.874269
0.87428
0.874285
0.874088
0.87452
0.874142
0.875346
0.87414
0.873041
0.87379
0.873998
0.873727
0.872983
0.874064
0.87349
0.875141
0.87349
0.87306
0.872617
0.874135
0.873698
0.875295
0.873113
0.872648
0.873961
0.873064
0.870482
0.871593
0.874082
0.872956
0.875482
0.872955
0.874927
0.871102
0.872523
0.874639
0.87026
0.874315
0.872774
0.877804
0.872772
0.863544
0.867307
0.87156
0.873644
0.87167
0.872191
0.871668
0.871063
0.871756
0.933421
0.944031
0.860469
0.793263
0.84927
0.876224
0.875625
0.890093
0.875706
0.873345
0.870589
0.873418
0.875504
0.869457
0.867483
0.873099
0.872509
0.873255
0.872512
0.875089
0.872514
0.874
0.871669
0.871203
0.87257
0.873179
0.872569
0.872581
0.873674
0.875449
0.873675
0.874395
0.872402
0.871872
0.873536
0.87306
0.874204
0.873707
0.874793
0.87258
0.872519
0.874421
0.873975
0.875208
0.873974
0.8738
0.874439
0.874329
0.873964
0.87357
0.874039
0.874179
0.87428
0.874085
0.87414
0.875275
0.874141
0.874305
0.873221
0.873294
0.874132
0.873672
0.872986
0.873487
0.874753
0.87349
0.874483
0.873488
0.872622
0.873697
0.875702
0.873698
0.873006
0.872991
0.874321
0.87396
0.869332
0.871404
0.872955
0.875122
0.872956
0.875726
0.872953
0.871414
0.87302
0.872775
0.871216
0.872773
0.875217
0.872775
0.873024
0.86416
0.865811
0.872628
0.871676
0.872499
0.871671
0.872238
0.870596
0.873772
0.940978
0.933409
0.857454
0.796712
0.852373
0.87554
0.884035
0.875626
0.887506
0.870639
0.870971
0.875517
0.873418
0.870906
0.867529
0.872507
0.87306
0.872511
0.874667
0.872514
0.874794
0.872514
0.871723
0.869775
0.873063
0.87257
0.872593
0.872546
0.87498
0.873627
0.875243
0.873672
0.872086
0.872233
0.873394
0.873402
0.873699
0.874952
0.873686
0.872605
0.87308
0.873964
0.875069
0.873975
0.87438
0.873811
0.874473
0.87444
0.874298
0.873627
0.874211
0.87428
0.874287
0.874158
0.874484
0.874141
0.875236
0.874129
0.873424
0.873625
0.873991
0.873623
0.873011
0.873483
0.873488
0.875041
0.873489
0.87349
0.87315
0.873967
0.873698
0.875332
0.873194
0.87255
0.87396
0.873974
0.86963
0.870492
0.873972
0.872955
0.875684
0.872955
0.87468
0.871887
0.872773
0.874543
0.87195
0.87394
0.872775
0.877203
0.872773
0.863724
0.86467
0.871675
0.873677
0.871676
0.872588
0.87175
0.87107
0.871759
0.933267
0.942168
0.85391
0.801504
0.856169
0.876395
0.875543
0.889279
0.875619
0.868335
0.871565
0.873418
0.875614
0.872287
0.867756
0.872891
0.872499
0.873125
0.872512
0.874918
0.872514
0.87355
0.872069
0.869895
0.872569
0.873137
0.872275
0.873268
0.873626
0.87524
0.873672
0.874087
0.872077
0.872794
0.873218
0.873305
0.87411
0.873687
0.87443
0.87298
0.872494
0.874249
0.873965
0.875134
0.873968
0.873808
0.87446
0.874324
0.874071
0.873621
0.874064
0.874138
0.874299
0.874027
0.874135
0.875101
0.874129
0.874431
0.873475
0.873279
0.874035
0.873682
0.872944
0.873285
0.874414
0.873489
0.873923
0.87292
0.8725
0.873697
0.875614
0.873698
0.873546
0.872527
0.874341
0.87374
0.869254
0.871575
0.872954
0.874843
0.872955
0.875915
0.872952
0.871389
0.872917
0.872771
0.871154
0.872773
0.87578
0.872775
0.873701
0.86416
0.86384
0.872
0.871676
0.873047
0.871756
0.87228
0.871039
0.873411
0.940484
0.933254
0.85095
0.802687
0.859921
0.875458
0.882637
0.875543
0.886262
0.866968
0.871176
0.875616
0.873418
0.87265
0.867554
0.872507
0.872785
0.872511
0.873524
0.872513
0.874706
0.872514
0.871877
0.86976
0.873125
0.87257
0.871687
0.87318
0.87516
0.873627
0.87527
0.87235
0.872368
0.872791
0.873483
0.873457
0.873678
0.874917
0.873663
0.873555
0.87249
0.873964
0.875129
0.873964
0.874366
0.873903
0.874473
0.874426
0.873721
0.873932
0.874134
0.874261
0.874287
0.87385
0.874414
0.874129
0.875092
0.874129
0.873629
0.873351
0.87397
0.873873
0.872939
0.873411
0.87345
0.874497
0.873441
0.87331
0.872499
0.873985
0.873698
0.875334
0.873465
0.872645
0.873958
0.874075
0.86963
0.871538
0.874079
0.872954
0.875252
0.872954
0.875094
0.871271
0.872722
0.874532
0.869042
0.873121
0.872774
0.877241
0.872774
0.863894
0.86416
0.871669
0.874078
0.871718
0.872494
0.871755
0.87107
0.871759
0.932988
0.941294
0.847753
0.804985
0.86162
0.877191
0.87546
0.888886
0.875532
0.864837
0.870633
0.873418
0.875881
0.873358
0.867511
0.872848
0.872493
0.873222
0.872512
0.874863
0.872514
0.874032
0.871188
0.869891
0.872569
0.87326
0.871303
0.872519
0.873626
0.875283
0.873626
0.872355
0.87276
0.872186
0.873453
0.873414
0.874006
0.873663
0.874568
0.873506
0.873028
0.874281
0.873964
0.875126
0.873963
0.873883
0.874451
0.874303
0.873718
0.873721
0.874022
0.874109
0.874294
0.873792
0.874128
0.875202
0.874129
0.874318
0.872963
0.87374
0.873884
0.873858
0.872986
0.873395
0.873846
0.873451
0.873394
0.873303
0.872898
0.873697
0.875429
0.873698
0.873517
0.872542
0.874312
0.873715
0.86949
0.870878
0.872953
0.874775
0.872954
0.875168
0.87295
0.872264
0.872746
0.872766
0.868864
0.872722
0.875032
0.872775
0.873378
0.864867
0.8639
0.871387
0.871758
0.872684
0.871757
0.872487
0.870628
0.873071
0.939951
0.933115
0.847759
0.806457
0.86208
0.875375
0.882758
0.875461
0.884137
0.8634
0.870562
0.875937
0.873418
0.873316
0.868002
0.872504
0.872775
0.872511
0.873813
0.872513
0.874748
0.872514
0.872353
0.86965
0.872867
0.872569
0.87152
0.873016
0.875284
0.873627
0.875128
0.872572
0.87276
0.872182
0.873548
0.873111
0.873653
0.87472
0.873636
0.87341
0.872494
0.873955
0.874979
0.873964
0.874383
0.873876
0.874472
0.874451
0.874462
0.873801
0.874014
0.873985
0.874286
0.873793
0.874442
0.874129
0.875202
0.874129
0.872964
0.873306
0.873856
0.873689
0.873201
0.873226
0.873396
0.874033
0.873397
0.873186
0.873162
0.87397
0.873698
0.87516
0.873427
0.872546
0.873956
0.874016
0.869631