/*--------------------------------*- C++ -*----------------------------------*\
| =========                 |                                                 |
| \\      /  F ield         | OpenFOAM: The Open Source CFD Toolbox           |
|  \\    /   O peration     | Version:  2312                                  |
|   \\  /    A nd           | Website:  www.openfoam.com                      |
|    \\/     M anipulation  |                                                 |
\*---------------------------------------------------------------------------*/
FoamFile
{
    version     2.0;
    format      ascii;
    arch        "LSB;label=32;scalar=64";
    class       volScalarField;
    location    "4";
    object      alpha.air;
}
// * * * * * * * * * * * * * * * * * * * * * * * * * * * * * * * * * * * * * //

dimensions      [0 0 0 0 0 0 0];

internalField   nonuniform List<scalar> 
50000
(
0.160518
0.163372
0.183706
0.204732
0.24277
0.248705
0.215687
0.193218
0.205359
0.205111
0.191265
0.202137
0.207535
0.206705
0.197703
0.192949
0.192958
0.195562
0.201679
0.201897
0.204205
0.20362
0.202844
0.197146
0.191351
0.194568
0.197938
0.202629
0.202437
0.204072
0.203817
0.202849
0.20491
0.195574
0.196138
0.198483
0.20214
0.203524
0.20297
0.201642
0.195543
0.201083
0.202208
0.203077
0.206653
0.199448
0.205697
0.211485
0.212301
0.208562
0.213118
0.211107
0.208486
0.200574
0.211558
0.202977
0.20264
0.205839
0.197334
0.197138
0.198333
0.197774
0.200302
0.203513
0.204274
0.203174
0.201366
0.196837
0.196949
0.202835
0.204128
0.202276
0.20325
0.197477
0.194625
0.196512
0.19838
0.203023
0.20292
0.203064
0.204292
0.203264
0.200725
0.197838
0.19206
0.193903
0.194548
0.204357
0.203129
0.205765
0.206977
0.203427
0.193744
0.193045
0.192487
0.198011
0.19789
0.202729
0.206291
0.187039
0.0687192
0.0713647
0.0860251
0.108616
0.14944
0.205533
0.202493
0.156057
0.123242
0.128595
0.155152
0.160805
0.154086
0.160705
0.163288
0.158102
0.160841
0.162901
0.16312
0.159441
0.159365
0.160671
0.161581
0.163459
0.162524
0.161949
0.164204
0.164311
0.160745
0.159297
0.159856
0.160756
0.166221
0.163903
0.162316
0.164963
0.165477
0.159784
0.160042
0.166566
0.163576
0.165787
0.16157
0.160894
0.169998
0.169147
0.171819
0.174613
0.176348
0.17448
0.176539
0.174719
0.17354
0.17066
0.171751
0.161077
0.161183
0.16937
0.166928
0.165436
0.166364
0.164942
0.165808
0.163706
0.16026
0.160032
0.163643
0.162738
0.163451
0.161548
0.15946
0.160479
0.164354
0.164344
0.161956
0.16191
0.163881
0.162114
0.161352
0.16091
0.15896
0.158786
0.161337
0.163202
0.16207
0.157908
0.159464
0.164786
0.153004
0.144566
0.156383
0.164767
0.161406
0.157636
0.159731
0.161727
0.162205
0.162272
0.157906
0.159705
0.0608713
0.0667279
0.0640398
0.0749019
0.106739
0.232719
0.209523
0.131122
0.115974
0.123321
0.126614
0.138166
0.12661
0.135982
0.138
0.129432
0.127673
0.131505
0.131489
0.127559
0.127505
0.128082
0.129589
0.133154
0.13049
0.128335
0.130602
0.132266
0.128148
0.128585
0.128359
0.128224
0.133376
0.130847
0.129339
0.132
0.130773
0.127539
0.127557
0.133194
0.131266
0.131656
0.128444
0.128076
0.133292
0.133318
0.133945
0.135593
0.137532
0.137245
0.137347
0.13555
0.134882
0.134592
0.134567
0.128214
0.12818
0.133679
0.132391
0.132461
0.132467
0.131953
0.13274
0.129877
0.127748
0.127923
0.130374
0.130317
0.131221
0.129769
0.12721
0.127805
0.132241
0.130793
0.127914
0.128853
0.133106
0.129696
0.128619
0.128236
0.127
0.127046
0.128286
0.132168
0.129221
0.12702
0.136303
0.138181
0.127374
0.125655
0.127374
0.141327
0.133406
0.128879
0.128701
0.130569
0.132239
0.130366
0.131319
0.128743
0.0665704
0.0566007
0.0665812
0.0685166
0.127273
0.250317
0.231833
0.122706
0.12332
0.112958
0.125301
0.131086
0.125543
0.131783
0.138047
0.127317
0.127576
0.131337
0.131458
0.127449
0.127558
0.128125
0.129813
0.133157
0.128922
0.128172
0.131349
0.132284
0.128177
0.126964
0.127179
0.128216
0.133375
0.131384
0.129526
0.132011
0.131441
0.127313
0.127547
0.133205
0.131042
0.131678
0.128649
0.127907
0.133174
0.133878
0.134072
0.135987
0.137583
0.136817
0.137428
0.136108
0.135165
0.134749
0.134136
0.12811
0.128305
0.133694
0.133359
0.132018
0.132452
0.132329
0.132758
0.12998
0.127524
0.127646
0.130425
0.1302
0.131237
0.12962
0.126752
0.127971
0.132259
0.131328
0.127827
0.129502
0.133116
0.129924
0.128856
0.128219
0.127045
0.126758
0.128888
0.132183
0.129369
0.127227
0.134357
0.138186
0.124742
0.127371
0.12668
0.14132
0.132787
0.126284
0.128869
0.13067
0.1316
0.1303
0.131326
0.128189
0.053401
0.0666853
0.0581239
0.0712576
0.164385
0.232714
0.225751
0.123398
0.10335
0.1234
0.125044
0.125916
0.126015
0.126501
0.1366
0.127574
0.126355
0.128226
0.127196
0.127558
0.126075
0.127557
0.127209
0.130258
0.126529
0.127228
0.126994
0.128984
0.125726
0.126295
0.125456
0.126296
0.129479
0.12673
0.126365
0.127962
0.126249
0.125528
0.126249
0.129103
0.127208
0.127424
0.12559
0.126014
0.126238
0.126485
0.126662
0.127841
0.131819
0.131046
0.131769
0.127786
0.127277
0.126997
0.126735
0.125859
0.125334
0.129316
0.127729
0.127946
0.127698
0.127946
0.128728
0.125987
0.126332
0.125675
0.126332
0.126315
0.127491
0.126035
0.126306
0.125744
0.128731
0.126366
0.126032
0.125464
0.129569
0.127045
0.126484
0.127044
0.125536
0.127044
0.126396
0.129012
0.127227
0.125019
0.1282
0.133931
0.127372
0.119696
0.127372
0.137681
0.13062
0.128866
0.126186
0.128828
0.128397
0.128736
0.130188
0.128672
0.0665352
0.0557953
0.0665434
0.0748366
0.182112
0.247711
0.209333
0.113357
0.1234
0.108634
0.126522
0.126408
0.122942
0.128271
0.136651
0.127886
0.127569
0.128196
0.127808
0.125387
0.127557
0.125949
0.127561
0.130227
0.127223
0.125657
0.127899
0.129004
0.126296
0.124572
0.126295
0.12553
0.129503
0.127406
0.125995
0.127985
0.127337
0.12624
0.125217
0.129135
0.127456
0.127342
0.126015
0.125077
0.128716
0.128963
0.129017
0.130742
0.131632
0.131868
0.13137
0.130801
0.12988
0.129494
0.129331
0.12502
0.125859
0.129323
0.12878
0.127807
0.128078
0.127501
0.128727
0.126601
0.125054
0.126314
0.12633
0.127171
0.127496
0.126473
0.124541
0.126306
0.128749
0.127524
0.12502
0.126027
0.129571
0.12684
0.127043
0.125739
0.127043
0.124606
0.127044
0.129065
0.126378
0.127223
0.128214
0.134177
0.123799
0.127371
0.125509
0.13861
0.132063
0.124764
0.128828
0.12796
0.128734
0.127991
0.130174
0.126271
0.0530268
0.066536
0.0536267
0.0950737
0.225097
0.232706
0.184726
0.123478
0.102407
0.12348
0.127672
0.126196
0.126595
0.127185
0.135458
0.127568
0.126308
0.127563
0.126914
0.127557
0.125111
0.127557
0.126925
0.128401
0.125654
0.127194
0.126903
0.127708
0.125067
0.126295
0.124254
0.126295
0.12644
0.126242
0.12593
0.126871
0.12624
0.124605
0.12624
0.127534
0.12591
0.126015
0.125052
0.125999
0.127413
0.126949
0.127439
0.127002
0.128989
0.129093
0.128821
0.127191
0.127128
0.127191
0.127583
0.125857
0.124856
0.127671
0.126654
0.126323
0.126654
0.126462
0.127438
0.125681
0.126314
0.124806
0.126312
0.126193
0.126318
0.125791
0.126306
0.125024
0.127309
0.125952
0.126028
0.125681
0.129643
0.127044
0.12561
0.127043
0.124542
0.127042
0.125466
0.127746
0.127222
0.124595
0.127222
0.134148
0.127372
0.118345
0.127372
0.13942
0.132087
0.128828
0.12554
0.128734
0.127428
0.128666
0.128927
0.128609
0.0665351
0.0524781
0.0665379
0.115639
0.232744
0.226904
0.16335
0.108743
0.12348
0.109826
0.130612
0.126595
0.121716
0.127313
0.134184
0.126204
0.127563
0.1274
0.127559
0.125149
0.127549
0.125623
0.127557
0.128719
0.127193
0.125591
0.127172
0.12774
0.126295
0.123948
0.126295
0.125099
0.127623
0.127594
0.125966
0.126894
0.125817
0.126233
0.12473
0.127578
0.126495
0.125869
0.125999
0.124722
0.126957
0.127501
0.127029
0.128693
0.129267
0.128455
0.129267
0.128418
0.127793
0.127381
0.127598
0.124748
0.125857
0.127665
0.126966
0.126837
0.126233
0.126634
0.127424
0.126333
0.124596
0.126314
0.125482
0.126692
0.126599
0.126307
0.123996
0.126306
0.127336
0.127143
0.124894
0.126026
0.129328
0.127084
0.127043
0.125303
0.127042
0.124564
0.127044
0.127833
0.12672
0.127219
0.128971
0.133603
0.122232
0.127371
0.125278
0.141309
0.132184
0.124975
0.128735
0.127244
0.128664
0.127609
0.128979
0.126084
0.0534086
0.066518
0.0529955
0.136095
0.238845
0.209412
0.143937
0.123558
0.102385
0.123558
0.131001
0.124859
0.126595
0.128394
0.134068
0.127563
0.12581
0.127559
0.126567
0.127549
0.12491
0.127548
0.127104
0.129347
0.126726
0.127166
0.126936
0.127135
0.124756
0.126294
0.123948
0.126295
0.126113
0.127549
0.125909
0.126582
0.126229
0.124301
0.126233
0.126787
0.126179
0.125999
0.124757
0.125999
0.126155
0.126339
0.1262
0.126375
0.127818
0.127437
0.127784
0.12678
0.126417
0.12676
0.126666
0.125857
0.124747
0.126739
0.126103
0.12616
0.125966
0.12616
0.126972
0.125501
0.126332
0.124532
0.126314
0.126588
0.126309
0.125585
0.126305
0.124752
0.126306
0.127321
0.126025
0.125448
0.129218
0.127043
0.126077
0.127042
0.124332
0.127041
0.125171
0.12782
0.127218
0.124402
0.129488
0.132861
0.127372
0.117568
0.127373
0.142135
0.131908
0.128735
0.126478
0.128665
0.126964
0.128604
0.128449
0.128607
0.0665137
0.0497083
0.0665202
0.1513
0.232752
0.194619
0.129932
0.107719
0.123557
0.10981
0.130794
0.126596
0.121379
0.129372
0.133794
0.126711
0.127561
0.127208
0.127549
0.124906
0.127539
0.125509
0.127548
0.129637
0.127193
0.125783
0.127167
0.127013
0.126294
0.123946
0.126294
0.12503
0.126883
0.126841
0.126006
0.126601
0.125538
0.126228
0.124532
0.126839
0.126566
0.125558
0.125999
0.124407
0.12653
0.12621
0.126587
0.127094
0.127715
0.127897
0.127664
0.127008
0.126994
0.126365
0.126772
0.124431
0.125857
0.126755
0.126684
0.125903
0.126143
0.12611
0.126946
0.126365
0.124507
0.126332
0.125394
0.126653
0.126501
0.126306
0.123952
0.126305
0.1265
0.127387
0.124984
0.126702
0.1293
0.126901
0.127042
0.124872
0.127041
0.124244
0.127041
0.127796
0.126373
0.12704
0.128473
0.133038
0.122256
0.127371
0.12502
0.141311
0.132248
0.124231
0.128663
0.127394
0.128604
0.126964
0.128607
0.126368
0.0539548
0.0665144
0.0554817
0.167394
0.234792
0.179939
0.122603
0.123636
0.102725
0.123636
0.131664
0.122632
0.126596
0.128713
0.133643
0.127562
0.125835
0.127563
0.126203
0.127539
0.124827
0.127539
0.126871
0.129794
0.127006
0.127194
0.127808
0.126331
0.124633
0.126294
0.123822
0.126295
0.126133
0.127775
0.125948
0.126439
0.126223
0.124277
0.126228
0.12617
0.126383
0.125999
0.124644
0.125989
0.125577
0.126001
0.125778
0.126004
0.127059
0.127158
0.127026
0.126069
0.126183
0.126053
0.126164
0.125846
0.124515
0.125857
0.126458
0.125764
0.125862
0.125941
0.126834
0.125465
0.126364
0.124528
0.126333
0.12633
0.126784
0.125546
0.126305
0.124629
0.126306
0.126786
0.126023
0.12575
0.128827
0.127043
0.125256
0.127041
0.124233
0.12704
0.12521
0.127864
0.127043
0.124398
0.129545
0.132264
0.127374
0.117076
0.127374
0.141516
0.133035
0.128663
0.126053
0.128674
0.126721
0.128603
0.128309
0.128461
0.0665137
0.0496347
0.066518
0.180585
0.231191
0.165467
0.123716
0.10777
0.123635
0.112279
0.132402
0.126595
0.121792
0.130114
0.133537
0.126831
0.127551
0.127164
0.127538
0.12505
0.127535
0.125756
0.12824
0.129527
0.127495
0.125992
0.1282
0.126503
0.126294
0.123803
0.126294
0.124899
0.12652
0.127769
0.126035
0.126459
0.125483
0.126222
0.12473
0.126509
0.126484
0.125531
0.125989
0.124472
0.126057
0.125928
0.12613
0.126423
0.127231
0.12681
0.127231
0.126574
0.126109
0.126195
0.126146
0.124472
0.125846
0.12607
0.126558
0.126055
0.12574
0.126287
0.12677
0.1264
0.124574
0.126364
0.125441
0.126371
0.126773
0.126305
0.123961
0.126305
0.126146
0.126838
0.125008
0.126137
0.128216
0.126894
0.127042
0.125067
0.12704
0.124459
0.127041
0.127788
0.127243
0.127038
0.129172
0.132372
0.122311
0.127372
0.123952
0.139872
0.135975
0.126055
0.128602
0.127593
0.128604
0.126847
0.128458
0.126085
0.0542948
0.0665058
0.0603867
0.191086
0.226813
0.156854
0.119299
0.123714
0.103768
0.123715
0.132055
0.124009
0.126596
0.131683
0.133357
0.127551
0.126261
0.127539
0.126567
0.127534
0.125033
0.127535
0.127245
0.129487
0.127108
0.127224
0.12731
0.126307
0.124509
0.126294
0.124045
0.126295
0.126212
0.127177
0.125966
0.126207
0.126216
0.124291
0.126222
0.126148
0.127324
0.12599
0.124618
0.125922
0.1255
0.125988
0.125935
0.125931
0.126806
0.126582
0.12679
0.125859
0.125782
0.125848
0.12566
0.12584
0.124497
0.125847
0.126461
0.125777
0.125862
0.12618
0.126827
0.125513
0.1264
0.124576
0.126365
0.127121
0.126707
0.125556
0.126304
0.124492
0.126305
0.126807
0.126024
0.1266
0.128658
0.127401
0.125729
0.12704
0.124343
0.12704
0.124749
0.127531
0.127038
0.124829
0.128267
0.131943
0.127376
0.117301
0.127375
0.139057
0.136279
0.128601
0.126377
0.128601
0.126984
0.128458
0.127296
0.128456
0.066504
0.0498098
0.0665101
0.199039
0.219819
0.14896
0.123794
0.107951
0.123713
0.113639
0.131556
0.126594
0.12189
0.131408
0.133793
0.126385
0.127538
0.126774
0.127534
0.124896
0.127534
0.125085
0.127777
0.129449
0.127377
0.126078
0.128344
0.127031
0.126294
0.123766
0.126294
0.125052
0.12647
0.128053
0.126696
0.126303
0.125459
0.126222
0.124563
0.12646
0.127351
0.125505
0.125922
0.124459
0.12589
0.125955
0.125895
0.126165
0.126783
0.126846
0.126707
0.126035
0.125963
0.125792
0.125923
0.12447
0.12584
0.12577
0.126537
0.125875
0.125691
0.126346
0.12677
0.126437
0.12466
0.1264
0.125369
0.127251
0.126595
0.126305
0.123967
0.126304
0.126006
0.126587
0.125328
0.126402
0.129303
0.126952
0.127042
0.124679
0.12704
0.124017
0.12704
0.127559
0.12701
0.127038
0.128344
0.132057
0.123708
0.127375
0.124124
0.138002
0.136859
0.126325
0.1286
0.127198
0.128458
0.126842
0.128456
0.125609
0.0544725
0.0664617
0.0704536
0.211172
0.213913
0.14187
0.118109
0.123793
0.104383
0.123794
0.131887
0.122619
0.126594
0.131509
0.133662
0.12754
0.126669
0.127534
0.125576
0.127533
0.124744
0.127534
0.127584
0.128616
0.127294
0.127253
0.1283
0.126295
0.124328
0.126294
0.123814
0.126295
0.126495
0.128079
0.12623
0.12619
0.126223
0.124472
0.126228
0.12621
0.126684
0.125922
0.124647
0.12588
0.125529
0.125976
0.12574
0.125893
0.126691
0.126556
0.126561
0.125799
0.125778
0.125835
0.12546
0.12581
0.124478
0.125841
0.126334
0.125838
0.125875
0.126256
0.126674
0.125566
0.126436
0.124818
0.126401
0.126383
0.127371
0.125554
0.126304
0.124596
0.126305
0.127261
0.126029
0.12604
0.129493
0.127045
0.125077
0.12704
0.123973
0.12704
0.125298
0.129615
0.128679
0.125081
0.128866
0.131832
0.12736
0.117754
0.127379
0.13524
0.136855
0.128599
0.125802
0.128666
0.12703
0.128456
0.127461
0.128452
0.066461
0.0498874
0.0789222
0.215853
0.209286
0.137667
0.123874
0.107642
0.123793
0.115852
0.132098
0.126592
0.122508
0.132007
0.133377
0.127243
0.127539
0.127298
0.127534
0.124857
0.127532
0.125605
0.127537
0.129262
0.127313
0.126502
0.127735
0.126237
0.126294
0.123992
0.126294
0.124862
0.126738
0.127475
0.126136
0.12623
0.125482
0.126228
0.124605
0.126504
0.127336
0.125506
0.12588
0.124515
0.125856
0.125955
0.125882
0.125887
0.126639
0.126408
0.126581
0.125897
0.12578
0.125785
0.125807
0.124494
0.12581
0.125576
0.126489
0.125899
0.125726
0.12633
0.126781
0.126469
0.124732
0.126436
0.125637
0.127055
0.12737
0.126304
0.123946
0.126304
0.125805
0.12726
0.125595
0.126035
0.129765
0.127746
0.127042
0.125005
0.12704
0.123954
0.12704
0.129423
0.127937
0.127037
0.129993
0.132072
0.124016
0.12735
0.124422
0.133796
0.136606
0.12644
0.12845
0.127439
0.128476
0.127105
0.129618
0.125541
0.0549572
0.0664617
0.0862706
0.216011
0.201716
0.133768
0.117621
0.123873
0.105479
0.123875
0.132131
0.124462
0.126593
0.131758
0.133456
0.127543
0.126672
0.127536
0.126003
0.127531
0.124732
0.127525
0.127659
0.129579
0.127555
0.127288
0.128139
0.126613
0.12438
0.126294
0.123911
0.126295
0.126704
0.12838
0.126645
0.126675
0.126229
0.124366
0.126233
0.126412
0.127339
0.12588
0.124672
0.125856
0.125521
0.125833
0.125731
0.125833
0.126568
0.126288
0.126397
0.125778
0.125739
0.125823
0.125448
0.125789
0.124511
0.12581
0.12648
0.125854
0.125899
0.126247
0.126847
0.125617
0.126468
0.124652
0.126437
0.126992
0.126749
0.1255
0.126304
0.124633
0.126305
0.126792
0.126033
0.126242
0.129646
0.128249
0.125703
0.12704
0.123898
0.12704
0.124716
0.129439
0.128018
0.125838
0.129638
0.130955
0.127325
0.119656
0.12735
0.132971
0.136642
0.12845
0.125687
0.128451
0.127358
0.128475
0.128901
0.12845
0.066504
0.0513055
0.0967501
0.215903
0.190668
0.129367
0.123956
0.108264
0.123874
0.116986
0.131313
0.126589
0.123179
0.131772
0.132914
0.127366
0.127539
0.127293
0.127532
0.124991
0.12752
0.125627
0.128454
0.129573
0.127315
0.126849
0.128155
0.126206
0.126294
0.123932
0.126294
0.125118
0.126751
0.128389
0.126226
0.126935
0.125395
0.126233
0.124823
0.126585
0.126805
0.125547
0.12588
0.124577
0.125856
0.126054
0.12582
0.125819
0.126518
0.126399
0.126379
0.125775
0.125753
0.125785
0.125775
0.124539
0.125789
0.125577
0.126659
0.126469
0.125776
0.12631
0.126894
0.126495
0.124768
0.126468
0.125443
0.12647
0.127381
0.126304
0.12421
0.126304
0.125974
0.127456
0.125478
0.127085
0.129555
0.128023
0.127042
0.124403
0.12704
0.123649
0.127041
0.129083
0.129069
0.12721
0.129862
0.131107
0.125124
0.127315
0.123814
0.131659
0.13536
0.127355
0.128449
0.127142
0.128449
0.127026
0.130713
0.125553
0.055795
0.0665065
0.104898
0.215688
0.181305
0.125056
0.117753
0.123956
0.106406
0.123957
0.130567
0.12354
0.12659
0.132393
0.132675
0.12754
0.126547
0.127534
0.125426
0.12752
0.124799
0.127506
0.128006
0.129712
0.127708
0.127314
0.127518
0.126353
0.124479
0.126294
0.12398
0.126295
0.127572
0.127941
0.126244
0.126147
0.126236
0.124449
0.12624
0.126537
0.127383
0.125923
0.124782
0.12588
0.125563
0.126125
0.125723
0.125819
0.126221
0.125829
0.125772
0.125761
0.125722
0.125761
0.12545
0.125775
0.124531
0.125789
0.126667
0.125992
0.12592
0.126222
0.126892
0.125611
0.126494
0.124679
0.126469
0.126828
0.12739
0.125698
0.126303
0.124454
0.126304
0.127479
0.126034
0.126476
0.129551
0.127534
0.125352
0.127041
0.123976
0.12704
0.12502
0.12914
0.129087
0.125545
0.130034
0.130929
0.127227
0.119671
0.127315
0.129228
0.133226
0.128449
0.125687
0.128448
0.127183
0.128453
0.128914
0.128453
0.0665139
0.0539948
0.113498
0.215416
0.174195
0.123575
0.124039
0.107866
0.123956
0.118914
0.13031
0.126584
0.124183
0.134114
0.132948
0.127197
0.127536
0.12705
0.12752
0.124985
0.127501
0.125485
0.128475
0.1297
0.127835
0.126764
0.127863
0.127009
0.126294
0.123981
0.126294
0.125292
0.127586
0.127315
0.126162
0.126835
0.125599
0.12624
0.124925
0.126636
0.127395
0.125696
0.125922
0.124718
0.125881
0.126221
0.125783
0.125783
0.126249
0.126246
0.126249
0.125732
0.125752
0.12584
0.125775
0.124592
0.125789
0.125605
0.126674
0.125994
0.125945
0.126307
0.126894
0.12651
0.124639
0.126494
0.125578
0.126931
0.126793
0.126304
0.12412
0.126303
0.125729
0.127216
0.125509
0.126036
0.129702
0.127242
0.127042
0.125039
0.12704
0.123784
0.127043
0.129495
0.12845
0.127212
0.131378
0.129514
0.125348
0.127225
0.12349
0.129399
0.13356
0.128083
0.128445
0.127152
0.128455
0.127237
0.130467
0.126483
0.0564798
0.0665155
0.124495
0.211865
0.167065
0.124123
0.115912
0.124038
0.107583
0.12404
0.129793
0.125507
0.126585
0.133565
0.132028
0.127537
0.126698
0.127525
0.125661
0.127501
0.124941
0.12749
0.129659
0.12953
0.127158
0.127345
0.127879
0.126417
0.124414
0.126294
0.124141
0.126295
0.126894
0.127362
0.126255
0.126699
0.126243
0.124696
0.126249
0.126649
0.126851
0.12599
0.124957
0.125922
0.125681
0.126215
0.125723
0.125681
0.125755
0.125913
0.125734
0.125758
0.125715
0.125958
0.125487
0.125789
0.124601
0.12581
0.126624
0.12626
0.125962
0.12622
0.126861
0.125559
0.12651
0.124659
0.126495
0.126415
0.127492
0.125796
0.126303
0.124598
0.126304
0.126752
0.126035
0.126445
0.129705
0.127783
0.125743
0.127041
0.124233
0.127041
0.125202
0.129509
0.127345
0.125202
0.131692
0.130338
0.127225
0.12062
0.127225
0.131516
0.133791
0.128996
0.125848
0.128445
0.127603
0.128448
0.12892
0.128453
0.0665141
0.0560089
0.130718
0.212138
0.162388
0.123105
0.124121
0.108668
0.124039
0.119844
0.128976
0.126584
0.124586
0.134622
0.131515
0.127171
0.127528
0.127034
0.127502
0.124829
0.127487
0.125722
0.12967
0.129167
0.127587
0.126833
0.127429
0.126609
0.126294
0.124263
0.126294
0.12536
0.127007
0.128153
0.126496
0.126254
0.125418
0.126249
0.124868
0.126671
0.127657
0.125693
0.125989
0.124901
0.125924
0.126221
0.125648
0.12582
0.126086
0.126309
0.126152
0.125722
0.125731
0.125957
0.125791
0.124685
0.12581
0.125699
0.126682
0.126713
0.12583
0.12631
0.126906
0.12651
0.124835
0.126509
0.125572
0.127176
0.127465
0.126303
0.124115
0.126303
0.126038
0.126601
0.12563
0.127648
0.129691
0.12825
0.127043
0.124539
0.127041
0.123702
0.127044
0.129233
0.127276
0.127214
0.131562
0.129919
0.124804
0.127225
0.124864
0.135794
0.133753
0.12828
0.128443
0.127322
0.128445
0.12744
0.130224
0.126363
0.0563993
0.0665165
0.130993
0.211874
0.15861
0.124207
0.116776
0.124121
0.109625
0.124123
0.126683
0.12572
0.126584
0.133564
0.131582
0.127808
0.126524
0.127503
0.126287
0.127487
0.125146
0.127487
0.129659
0.128276
0.127705
0.127369
0.127835
0.127447
0.124683
0.126294
0.124393
0.126298
0.127979
0.128156
0.126607
0.1269
0.126253
0.124638
0.126261
0.126574
0.127661
0.126014
0.124902
0.125989
0.125838
0.126214
0.125569
0.125645
0.125628
0.126441
0.125725
0.125737
0.125715
0.125955
0.125544
0.12581
0.124734
0.125858
0.126641
0.126741
0.125975
0.126242
0.126932
0.125629
0.126509
0.124719
0.126509
0.126953
0.126968
0.125711
0.126303
0.124621
0.126304
0.127266
0.126036
0.12633
0.129591
0.129376
0.125536
0.127042
0.123989
0.127042
0.124829
0.129101
0.12767
0.12537
0.131247
0.127376
0.127225
0.12104
0.127226
0.136658
0.133478
0.128443
0.126533
0.128443
0.127602
0.128446
0.12893
0.12833
0.066515
0.0557613
0.134458
0.207716
0.156581
0.122267
0.124205
0.108387
0.124122
0.12092
0.126856
0.126583
0.125513
0.134451
0.131257
0.127196
0.127507
0.127004
0.127488
0.125141
0.127486
0.126157
0.129266
0.128786
0.127401
0.126823
0.127864
0.126804
0.126324
0.124402
0.126297
0.125566
0.127542
0.127845
0.126553
0.127015
0.125649
0.126261
0.125101
0.126945
0.127328
0.125561
0.126014
0.124832
0.125993
0.12622
0.125637
0.125662
0.126049
0.126448
0.126074
0.125743
0.125739
0.125955
0.125812
0.124834
0.125857
0.125583
0.126588
0.126387
0.125837
0.126328
0.12701
0.12651
0.124712
0.126509
0.125384
0.12651
0.127433
0.126303
0.124293
0.126303
0.125931
0.127277
0.125496
0.126037
0.129303
0.129474
0.127044
0.125113
0.127042
0.123885
0.127045
0.129131
0.127652
0.127217
0.130186
0.127226
0.124573
0.127225
0.12509
0.135838
0.132407
0.127986
0.128441
0.127409
0.128443
0.127936
0.129797
0.126206
0.0571409
0.0665258
0.138481
0.208816
0.155038
0.124291
0.115667
0.124204
0.109322
0.124258
0.12954
0.125498
0.126583
0.133566
0.131682
0.127507
0.126736
0.127489
0.1256
0.127487
0.125011
0.127487
0.128419
0.128468
0.12701
0.127401
0.127725
0.127217
0.124618
0.126324
0.124402
0.126309
0.127489
0.127378
0.126929
0.126476
0.126266
0.12475
0.126276
0.127077
0.126797
0.126025
0.124884
0.126014
0.125712
0.126209
0.125533
0.125579
0.125679
0.126439
0.125725
0.125737
0.125715
0.125929
0.125672
0.125857
0.124604
0.125858
0.126526
0.126057
0.125985
0.126268
0.127018
0.125741
0.12651
0.124925
0.126509
0.126885
0.127466
0.125705
0.126302
0.124548
0.126304
0.126622
0.126037
0.126411
0.128026
0.129454
0.12577
0.127043
0.124217
0.127043
0.125117
0.128695
0.127242
0.125316
0.129736
0.126108
0.127226
0.122363
0.127228
0.136594
0.131643
0.128441
0.12643
0.128441
0.127626
0.128375
0.128938
0.128328
0.066539
0.0557198
0.138027
0.209086
0.153266
0.123798
0.124289
0.109453
0.124208
0.124285
0.129961
0.126583
0.125492
0.132488
0.131465
0.127169
0.127491
0.127013
0.12749
0.124947
0.127486
0.125842
0.12883
0.128104
0.127699
0.126955
0.127779
0.127737
0.126324
0.124418
0.126324
0.125748
0.127492
0.127225
0.126572
0.127404
0.125799
0.126276
0.125255
0.127222
0.126843
0.125683
0.126025
0.124805
0.126019
0.126215
0.125567
0.125649
0.126038
0.126445
0.12601
0.125775
0.125712
0.125928
0.125858
0.124692
0.125857
0.125615
0.126959
0.126007
0.125897
0.126342
0.127023
0.126511
0.12475
0.126509
0.125441
0.126966
0.126862
0.126303
0.124438
0.126303
0.125939
0.127376
0.125545
0.127659
0.12785
0.129473
0.127045
0.12487
0.127043
0.12366
0.127046
0.128715
0.127373
0.12722
0.129794
0.127227
0.12434
0.127227
0.125871
0.135838
0.131776
0.127144
0.12844
0.127459
0.128331
0.128102
0.129352
0.126295
0.0579652
0.0665532
0.138428
0.207842
0.15246
0.124377
0.116634
0.124288
0.112462
0.125654
0.130138
0.124851
0.126582
0.131121
0.131666
0.127493
0.126933
0.127489
0.126879
0.127487
0.125105
0.127487
0.128929
0.128213
0.127243
0.127427
0.127741
0.127253
0.12455
0.126324
0.124521
0.126326
0.127391
0.128119
0.126607
0.127286
0.126282
0.125018
0.126293
0.126488
0.127469
0.126025
0.124859
0.126025
0.125631
0.126196
0.125533
0.12556
0.125818
0.126424
0.125731
0.12572
0.125715
0.125912
0.12548
0.125858
0.124654
0.12586
0.126959
0.12621
0.126002
0.126273
0.127017
0.125936
0.12651
0.124859
0.12651
0.12694
0.127383
0.125865
0.126302
0.124705
0.126887
0.127352
0.126039
0.126936
0.129518
0.128407
0.125918
0.127044
0.124518
0.127045
0.125073
0.128898
0.127477
0.125361
0.12974
0.125685
0.127226
0.122196
0.127228
0.136456
0.132693
0.12844
0.126356
0.12833
0.127809
0.128332
0.128937
0.128244
0.0665789
0.0559688
0.139531
0.206737
0.15073
0.123776
0.124375
0.109907
0.124294
0.126655
0.129411
0.126582
0.124496
0.130543
0.132517
0.126901
0.127491
0.126745
0.127488
0.124911
0.127486
0.126
0.128331
0.128797
0.12743
0.126821
0.127431
0.127419
0.126326
0.124551
0.126325
0.125605
0.127598
0.128128
0.126464
0.12694
0.125796
0.126293
0.125207
0.12742
0.127481
0.125579
0.126025
0.124792
0.126026
0.1262
0.125561
0.125671
0.126036
0.12643
0.125961
0.125821
0.12572
0.125915
0.12586
0.124725
0.125859
0.125695
0.126779
0.126706
0.125868
0.126328
0.127014
0.126513
0.125247
0.12651
0.125517
0.126512
0.127378
0.126303
0.124298
0.126302
0.126994
0.127009
0.125679
0.12604
0.130668
0.128596
0.127045
0.124878
0.127044
0.124274
0.127047
0.128586
0.12698
0.127225
0.128784
0.127227
0.124783
0.127225
0.126976
0.13584
0.134189
0.127372
0.128324
0.127501
0.128329
0.127762
0.129404
0.126228
0.0590222
0.0665905
0.142546
0.203288
0.147627
0.12446
0.115965
0.124374
0.112494
0.129361
0.129029
0.124483
0.126582
0.129094
0.132471
0.127493
0.12694
0.127489
0.125333
0.127486
0.125206
0.127486
0.128277
0.130225
0.126937
0.12743
0.127407
0.127454
0.12502
0.126373
0.124757
0.126328
0.127914
0.127767
0.126606
0.126598
0.126301
0.125048
0.126314
0.127395
0.12692
0.126036
0.124931
0.126025
0.12562
0.126189
0.125527
0.12556
0.125702
0.126373
0.125789
0.12572
0.125713
0.125842
0.125516
0.125859
0.124764
0.125871
0.126576
0.126375
0.126009
0.126377
0.126989
0.126517
0.126512
0.124959
0.126511
0.12651
0.12685
0.126033
0.126302
0.124668
0.126806
0.12745
0.12604
0.126026
0.13037
0.129508
0.126028
0.127045
0.124316
0.127045
0.12532
0.128113
0.127227
0.125457
0.12805
0.12606
0.127225
0.122797
0.127227
0.136276
0.13533
0.128325
0.126323
0.128324
0.127412
0.12825
0.12893
0.128241
0.066733
0.0578316
0.14609
0.198496
0.143831
0.123605
0.124457
0.110721
0.124381
0.131665
0.128435
0.126582
0.124386
0.127713
0.132244
0.127109
0.127501
0.126875
0.127488
0.125082
0.127486
0.12645
0.127931
0.130105
0.127431
0.126863
0.127725
0.126732
0.126374
0.12476
0.126328
0.125913
0.127923
0.127206
0.126782
0.126695
0.12589
0.126313
0.12557
0.12702
0.127506
0.125751
0.126035
0.124866
0.126032
0.126192
0.12554
0.125676
0.125929
0.126379
0.125936
0.125862
0.125701
0.125973
0.125865
0.124899
0.125871
0.125569
0.126525
0.126721
0.125965
0.126318
0.127056
0.126715
0.125586
0.126511
0.126077
0.12708
0.1275
0.126303
0.124386
0.126302
0.126454
0.127473
0.125659
0.12626
0.130746
0.128425
0.127046
0.125157
0.127045
0.124085
0.127048
0.128611
0.127083
0.127229
0.128846
0.127227
0.12422
0.127225
0.126299
0.13584
0.13616
0.128
0.128324
0.126953
0.128244
0.12772
0.128961
0.126589
0.059516
0.0667456
0.14905
0.197313
0.140079
0.124542
0.117363
0.124457
0.113738
0.133032
0.128824
0.124384
0.126582
0.12735
0.132446
0.127493
0.127215
0.127489
0.126476
0.127487
0.125294
0.127486
0.128123
0.13024
0.126875
0.12743
0.128313
0.12682
0.12484
0.126373
0.12473
0.12765
0.127632
0.127209
0.126517
0.126543
0.126322
0.125083
0.126337
0.126445
0.12751
0.126036
0.124871
0.126036
0.125634
0.126097
0.125527
0.125574
0.126279
0.126068
0.125866
0.125739
0.125713
0.12615
0.125586
0.125871
0.124908
0.125871
0.126371
0.126649
0.12603
0.126127
0.127061
0.126589
0.12655
0.125503
0.126559
0.12669
0.127501
0.126015
0.126302
0.124666
0.126535
0.127355
0.126042
0.125925
0.13037
0.128462
0.125921
0.127046
0.124748
0.127046
0.124906
0.128729
0.127278
0.125468
0.130958
0.126879
0.127226
0.122759
0.127226
0.136106
0.13584
0.128331
0.125922
0.128282
0.127506
0.128245
0.12893
0.128241
0.0670116
0.0587057
0.152247
0.195015
0.13838
0.122809
0.12454
0.111114
0.124468
0.135163
0.129367
0.126582
0.124119
0.126642
0.132489
0.127152
0.127507
0.126778
0.127488
0.125137
0.127486
0.125968
0.128812
0.130109
0.127431
0.12674
0.128697
0.127481
0.126374
0.124717
0.126374
0.127645
0.12724
0.127814
0.126547
0.126586
0.125994
0.126337
0.125432
0.126494
0.126972
0.125719
0.126036
0.124874
0.126037
0.126117
0.125549
0.125697
0.126282
0.126279
0.125978
0.125891
0.125706
0.126208
0.125872
0.124798
0.125871
0.125682
0.127037
0.12626
0.126116
0.126142
0.127014
0.126605
0.126154
0.126549
0.126606
0.126697
0.127102
0.126303
0.124571
0.126302
0.126483
0.127458
0.125688
0.126285
0.13051
0.129122
0.127047
0.125225
0.127046
0.124832
0.12705
0.127736
0.127254
0.127234
0.131136
0.127278
0.124968
0.127225
0.126622
0.135133
0.1361
0.128613
0.128242
0.127316
0.128243
0.127513
0.129372
0.126929
0.0600493
0.0668847
0.152241
0.193543
0.13792
0.124625
0.117242
0.124539
0.115863
0.1366
0.129438
0.124063
0.126582
0.126684
0.131998
0.127496
0.127225
0.127489
0.126187
0.127487
0.125252
0.127486
0.127647
0.13035
0.127133
0.127431
0.12848
0.126984
0.124716
0.126373
0.124872
0.127428
0.12724
0.127818
0.126452
0.126889
0.126347
0.12528
0.126364
0.12659
0.127506
0.126045
0.125021
0.126036
0.125617
0.126124
0.125528
0.125549
0.125538
0.126199
0.125986
0.126015
0.125714
0.126207
0.125558
0.125871
0.124798
0.125871
0.127036
0.126694
0.126144
0.126311
0.126799
0.126774
0.126604
0.125967
0.126603
0.126814