/*--------------------------------*- C++ -*----------------------------------*\
| =========                 |                                                 |
| \\      /  F ield         | OpenFOAM: The Open Source CFD Toolbox           |
|  \\    /   O peration     | Version:  2312                                  |
|   \\  /    A nd           | Website:  www.openfoam.com                      |
|    \\/     M anipulation  |                                                 |
\*---------------------------------------------------------------------------*/
FoamFile
{
    version     2.0;
    format      ascii;
    arch        "LSB;label=32;scalar=64";
    class       volScalarField;
    location    "4";
    object      alpha.airMean;
}
// * * * * * * * * * * * * * * * * * * * * * * * * * * * * * * * * * * * * * //

dimensions      [0 0 0 0 0 0 0];

internalField   nonuniform List<scalar> 
50000
(
0.202129
0.194576
0.196203
0.204659
0.201798
0.198548
0.20396
0.203302
0.20168
0.198246
0.197672
0.201392
0.204426
0.205637
0.205605
0.203971
0.198934
0.197683
0.19909
0.200385
0.201672
0.203921
0.204721
0.204192
0.204428
0.202108
0.200004
0.201233
0.202249
0.205454
0.205681
0.206278
0.206122
0.203905
0.205443
0.205598
0.205137
0.209249
0.206442
0.211774
0.204167
0.208932
0.208273
0.209748
0.214084
0.212404
0.214795
0.216074
0.216959
0.216861
0.217072
0.216667
0.216322
0.213876
0.215345
0.210334
0.210275
0.212709
0.210774
0.209513
0.210277
0.208843
0.207652
0.204906
0.209319
0.205198
0.205513
0.202099
0.204942
0.20566
0.205384
0.202494
0.201382
0.200354
0.200749
0.2047
0.204113
0.204443
0.204391
0.202624
0.201938
0.200402
0.198523
0.197829
0.2011
0.203059
0.204239
0.203959
0.20112
0.198585
0.199023
0.200959
0.201853
0.202677
0.200053
0.202734
0.203982
0.198425
0.197178
0.198025
0.152706
0.153812
0.157091
0.16357
0.162247
0.164686
0.159371
0.158382
0.158804
0.162243
0.163866
0.163027
0.158137
0.15563
0.160313
0.164102
0.164314
0.163897
0.164624
0.165506
0.164838
0.163932
0.162605
0.163296
0.164988
0.166566
0.166694
0.166939
0.1677
0.167416
0.164474
0.165457
0.169158
0.169624
0.169668
0.170588
0.170151
0.169918
0.166635
0.173015
0.170562
0.172642
0.170379
0.170844
0.174959
0.1752
0.176109
0.176739
0.17713
0.177243
0.177215
0.1771
0.176896
0.17586
0.17588
0.171687
0.171691
0.174619
0.17423
0.173489
0.173771
0.172236
0.172167
0.170196
0.169293
0.165011
0.169921
0.167919
0.166384
0.164948
0.167089
0.167707
0.167118
0.166692
0.166599
0.165674
0.163342
0.162841
0.163732
0.16443
0.165102
0.164786
0.164457
0.164271
0.163899
0.162004
0.160827
0.160266
0.161261
0.161452
0.163283
0.161851
0.159469
0.160759
0.163262
0.160407
0.163824
0.162746
0.161877
0.162986
0.126431
0.130883
0.130722
0.138766
0.136145
0.140289
0.133565
0.131511
0.131769
0.134342
0.135694
0.134349
0.13249
0.130223
0.131958
0.135274
0.135124
0.132382
0.132474
0.133216
0.133299
0.132008
0.131234
0.131775
0.132939
0.134052
0.134009
0.133429
0.134363
0.133737
0.131691
0.132101
0.13467
0.135262
0.135172
0.135372
0.135419
0.134548
0.13271
0.136671
0.135928
0.136296
0.134954
0.135009
0.137296
0.137441
0.137678
0.138057
0.138413
0.13854
0.13847
0.138297
0.138097
0.137701
0.137638
0.135657
0.13559
0.137145
0.13724
0.13699
0.137137
0.136293
0.136281
0.13529
0.134702
0.131878
0.134893
0.134261
0.132856
0.131928
0.133301
0.13439
0.133712
0.133403
0.134452
0.133602
0.131415
0.13133
0.131871
0.132919
0.133271
0.132716
0.132538
0.134071
0.133675
0.132486
0.131377
0.131208
0.132747
0.132037
0.134857
0.132801
0.13083
0.131574
0.134755
0.131156
0.134407
0.134576
0.13259
0.132294
0.126301
0.126305
0.130952
0.138103
0.135863
0.138674
0.133349
0.128476
0.130365
0.132971
0.134014
0.133183
0.130141
0.129764
0.129811
0.133955
0.133836
0.131283
0.132141
0.132671
0.132642
0.13126
0.130282
0.130521
0.132163
0.133532
0.133207
0.132997
0.134005
0.133094
0.130891
0.131437
0.134168
0.134731
0.134809
0.135037
0.134933
0.134015
0.13211
0.136115
0.135217
0.135771
0.134529
0.134438
0.136714
0.137042
0.137265
0.137664
0.137862
0.137974
0.137944
0.137808
0.137599
0.137294
0.137089
0.134992
0.135115
0.136777
0.136818
0.136332
0.136611
0.13614
0.135535
0.134747
0.133878
0.131251
0.134331
0.133979
0.132347
0.131221
0.132764
0.134004
0.133193
0.132812
0.133738
0.13286
0.13074
0.130124
0.131083
0.132059
0.132417
0.132401
0.131642
0.132882
0.132702
0.130901
0.129606
0.130597
0.131094
0.131116
0.13351
0.131413
0.129651
0.130156
0.13337
0.130355
0.133595
0.133365
0.131996
0.13067
0.120117
0.125608
0.128317
0.136465
0.133977
0.135874
0.128893
0.128635
0.126499
0.131014
0.132109
0.130233
0.129486
0.125186
0.129016
0.130557
0.130343
0.129091
0.12818
0.12889
0.129392
0.128729
0.12726
0.128194
0.128232
0.129536
0.129241
0.129148
0.129477
0.129369
0.127661
0.128345
0.128824
0.129563
0.129596
0.129793
0.130059
0.129461
0.128695
0.131155
0.129967
0.130338
0.129651
0.129581
0.130505
0.130585
0.13086
0.131342
0.131868
0.132122
0.132035
0.131378
0.1309
0.130666
0.130541
0.130166
0.129868
0.130797
0.130908
0.131097
0.130761
0.130469
0.129988
0.12964
0.129647
0.128048
0.128796
0.129348
0.128455
0.127729
0.129159
0.129483
0.128941
0.128532
0.129443
0.128879
0.127451
0.127862
0.127704
0.129437
0.128677
0.128652
0.129154
0.129362
0.12965
0.127914
0.128531
0.127028
0.129519
0.128133
0.13102
0.129486
0.126565
0.128797
0.130515
0.127309
0.130458
0.131075
0.129579
0.12982
0.12339
0.123105
0.129536
0.136059
0.134895
0.13443
0.13075
0.125128
0.128995
0.13026
0.132362
0.130662
0.126863
0.12854
0.126853
0.131082
0.130899
0.128487
0.128845
0.128681
0.1298
0.12786
0.128203
0.127168
0.128974
0.129648
0.129495
0.128929
0.129546
0.129062
0.128346
0.127741
0.129766
0.130075
0.12986
0.130004
0.130174
0.129672
0.12827
0.131075
0.130393
0.13046
0.129668
0.129748
0.13129
0.131469
0.131657
0.131987
0.13218
0.132373
0.132115
0.132152
0.131918
0.131657
0.131545
0.129869
0.13025
0.131222
0.131349
0.130999
0.131066
0.130765
0.130518
0.12983
0.129388
0.128236
0.129403
0.129738
0.128195
0.128325
0.128814
0.129526
0.129111
0.128915
0.129636
0.129015
0.128262
0.126751
0.128615
0.128728
0.129009
0.128912
0.128616
0.13008
0.129412
0.12878
0.126653
0.128824
0.127812
0.129095
0.131286
0.12894
0.128095
0.127159
0.130934
0.127904
0.13084
0.130639
0.130541
0.127625
0.119428
0.125115
0.128427
0.136503
0.132983
0.134412
0.127793
0.128466
0.125457
0.130843
0.131767
0.129948
0.129018
0.123961
0.128701
0.129962
0.130133
0.128601
0.127307
0.128235
0.128479
0.128217
0.126247
0.127749
0.127313
0.128534
0.128704
0.128035
0.128176
0.128337
0.126469
0.127607
0.127783
0.128548
0.128014
0.128114
0.128482
0.127629
0.127806
0.129058
0.128537
0.12859
0.127928
0.12827
0.128654
0.128765
0.128967
0.12931
0.129655
0.129834
0.129711
0.129356
0.129021
0.12872
0.128717
0.12832
0.128259
0.128706
0.128774
0.128934
0.128586
0.128207
0.128701
0.128096
0.128352
0.126682
0.127731
0.128442
0.127431
0.12659
0.128139
0.128164
0.127885
0.128043
0.128623
0.128016
0.12646
0.127494
0.126669
0.12884
0.127924
0.127937
0.128432
0.128716
0.129344
0.127352
0.128225
0.126093
0.129029
0.127703
0.130951
0.129401
0.125816
0.12847
0.129809
0.126577
0.129583
0.131029
0.129141
0.129444
0.123208
0.12239
0.129014
0.136307
0.133747
0.132589
0.129843
0.124575
0.128817
0.130172
0.131937
0.130039
0.12606
0.128278
0.126351
0.130492
0.130677
0.127916
0.128223
0.127981
0.129203
0.127156
0.127761
0.126414
0.128279
0.128526
0.129071
0.127815
0.128414
0.127813
0.127597
0.126759
0.128441
0.128698
0.128307
0.12838
0.128603
0.128337
0.127056
0.129171
0.128505
0.128675
0.128296
0.127922
0.129292
0.12936
0.129457
0.129761
0.129887
0.129889
0.129949
0.129892
0.12974
0.129488
0.129498
0.128293
0.128326
0.129206
0.129173
0.129308
0.128775
0.128835
0.12885
0.128508
0.127805
0.127613
0.127766
0.128584
0.127102
0.127555
0.127581
0.128399
0.128026
0.128037
0.128797
0.128006
0.127774
0.126064
0.128039
0.127959
0.12847
0.128294
0.127992
0.129621
0.129081
0.128661
0.126288
0.128433
0.127072
0.128716
0.131148
0.128625
0.127842
0.126546
0.130636
0.127394
0.130241
0.130494
0.130104
0.127087
0.118615
0.125359
0.128689
0.136863
0.131584
0.133225
0.127076
0.128346
0.125266
0.130681
0.131375
0.129576
0.128734
0.123485
0.12848
0.129769
0.13002
0.128423
0.127124
0.128142
0.128149
0.127982
0.125915
0.127515
0.127043
0.128343
0.128174
0.127473
0.127707
0.12764
0.125898
0.127208
0.127357
0.127957
0.127315
0.127448
0.127821
0.126672
0.127119
0.12785
0.127723
0.127676
0.127101
0.127376
0.12767
0.127781
0.127867
0.128214
0.128411
0.12853
0.128478
0.128431
0.128208
0.128155
0.12801
0.127468
0.127278
0.127729
0.127627
0.128208
0.127527
0.127618
0.127958
0.127388
0.127273
0.126214
0.127211
0.128078
0.127077
0.126103
0.127523
0.127664
0.127262
0.127645
0.128362
0.127819
0.12614
0.127258
0.126349
0.128497
0.127744
0.127711
0.128191
0.128643
0.129191
0.127237
0.128089
0.125746
0.128954
0.127372
0.130718
0.129287
0.125517
0.128273
0.129568
0.12629
0.129057
0.131251
0.128884
0.12914
0.12268
0.121956
0.129469
0.136836
0.133057
0.131474
0.129221
0.124522
0.128647
0.129777
0.131588
0.130025
0.125414
0.128082
0.126049
0.130041
0.130324
0.127703
0.127992
0.127812
0.128889
0.126784
0.127478
0.126079
0.127983
0.128156
0.12835
0.127373
0.127871
0.127151
0.127173
0.126193
0.127812
0.12795
0.127538
0.127597
0.127789
0.12753
0.126473
0.127917
0.127881
0.127698
0.127308
0.127142
0.128087
0.128151
0.128259
0.128366
0.12855
0.128606
0.128544
0.128452
0.128511
0.128194
0.128313
0.127211
0.127463
0.127988
0.128072
0.128152
0.127901
0.127556
0.128032
0.127693
0.12711
0.127045
0.127074
0.128087
0.126551
0.127124
0.126903
0.127796
0.12755
0.127745
0.128338
0.127663
0.127514
0.125693
0.127738
0.127541
0.128307
0.12806
0.127771
0.129367
0.128692
0.128436
0.126041
0.128122
0.126812
0.128341
0.130693
0.12863
0.127709
0.126206
0.130283
0.127112
0.129846
0.130433
0.129951
0.126909
0.118054
0.124904
0.129305
0.137204
0.131033
0.13251
0.126727
0.128125
0.12501
0.13029
0.131052
0.129117
0.12844
0.123246
0.128177
0.129508
0.129632
0.128202
0.126903
0.127806
0.127785
0.127708
0.12561
0.127258
0.126809
0.128055
0.127805
0.127215
0.127317
0.12711
0.125436
0.126828
0.12701
0.127486
0.126851
0.126961
0.127308
0.126173
0.12672
0.12676
0.127123
0.126988
0.126365
0.126817
0.126896
0.127248
0.127314
0.127393
0.127561
0.127663
0.127592
0.127467
0.127432
0.127267
0.127254
0.126797
0.12661
0.126973
0.127062
0.127454
0.127029
0.126965
0.127373
0.126956
0.126805
0.125758
0.126838
0.127635
0.126775
0.125708
0.127049
0.127263
0.126993
0.127278
0.128101
0.127558
0.125833
0.126997
0.125992
0.128177
0.127431
0.127578
0.127965
0.12847
0.128948
0.126969
0.127844
0.125395
0.128504
0.12692
0.130278
0.129113
0.125382
0.128013
0.129087
0.125974
0.128767
0.130959
0.12867
0.12887
0.122232
0.121316
0.129427
0.136945
0.132149
0.130632
0.128939
0.124158
0.128319
0.129325
0.131041
0.129464
0.124958
0.12773
0.125696
0.129578
0.129951
0.127305
0.127557
0.127365
0.128412
0.126268
0.127049
0.125572
0.127509
0.127749
0.127987
0.127084
0.127416
0.126476
0.126649
0.12565
0.127168
0.127399
0.126886
0.126953
0.127065
0.126847
0.125866
0.127043
0.127092
0.126919
0.126658
0.126256
0.127161
0.127162
0.127275
0.127343
0.127413
0.127473
0.127417
0.127468
0.127297
0.127297
0.127202
0.126419
0.126608
0.12712
0.127133
0.127286
0.126953
0.126884
0.12716
0.127112
0.126368
0.126573
0.126428
0.127524
0.126048
0.126619
0.126299
0.127311
0.127149
0.127203
0.127995
0.127165
0.127041
0.125201
0.127271
0.127061
0.127742
0.127532
0.127564
0.129036
0.12845
0.128068
0.125613
0.127718
0.126264
0.127797
0.12999
0.128354
0.127374
0.125919
0.129791
0.126807
0.129295
0.130107
0.129603
0.126578
0.117583
0.124444
0.129247
0.136687
0.129832
0.131663
0.126395
0.127828
0.124957
0.130075
0.130415
0.128589
0.128083
0.122966
0.127815
0.129296
0.129466
0.12775
0.126691
0.127561
0.127427
0.127291
0.125113
0.126897
0.126416
0.127666
0.127344
0.126714
0.126885
0.126612
0.125024
0.126365
0.126503
0.126905
0.126378
0.126484
0.12675
0.125691
0.1262
0.126163
0.126774
0.126359
0.125804
0.126154
0.126246
0.126449
0.126572
0.126658
0.126716
0.126815
0.126737
0.126715
0.126611
0.126602
0.126476
0.126148
0.126001
0.126419
0.126499
0.12672
0.1264
0.126415
0.126645
0.126523
0.126293
0.125307
0.126369
0.127344
0.126301
0.125282
0.126543
0.126816
0.126545
0.127034
0.127646
0.127176
0.125452
0.126632
0.125461
0.127748
0.127177
0.127174
0.127635
0.12823
0.128696
0.126726
0.127537
0.125149
0.128136
0.126348
0.129545
0.128571
0.125026
0.12759
0.128648
0.125672
0.128453
0.130802
0.128482
0.128477
0.121854
0.121375
0.129689
0.13625
0.130819
0.12997
0.128289
0.124046
0.127951
0.129368
0.130322
0.128938
0.124643
0.127377
0.125382
0.129365
0.129592
0.127048
0.127159
0.127001
0.128069
0.125925
0.126704
0.125309
0.127057
0.127378
0.127523
0.126556
0.126945
0.125978
0.126254
0.125244
0.1267
0.126953
0.126477
0.126382
0.126572
0.126245
0.125453
0.126386
0.12673
0.126308
0.126014
0.125753
0.126449
0.1265
0.126467
0.126523
0.126584
0.126695
0.126625
0.126584
0.126606
0.126451
0.126512
0.125861
0.125998
0.126413
0.126511
0.126533
0.126421
0.126271
0.126606
0.126621
0.12587
0.126095
0.125998
0.127273
0.125582
0.12615
0.12581
0.12685
0.126636
0.126795
0.127571
0.126824
0.126718
0.124916
0.126903
0.126702
0.127483
0.127149
0.127177
0.128658
0.128314
0.127737
0.125376
0.127389
0.125878
0.127314
0.129398
0.127814
0.127099
0.125406
0.129465
0.126419
0.128933
0.129978
0.129405
0.126165
0.117302
0.124106
0.129897
0.136191
0.128643
0.131182
0.125857
0.12745
0.124769
0.129742
0.129774
0.128095
0.127712
0.122826
0.127488
0.129078
0.129146
0.1273
0.126309
0.127066
0.126979
0.126965
0.124793
0.126515
0.126032
0.127267
0.127085
0.126259
0.126499
0.126211
0.124651
0.125968
0.126158
0.126593
0.126006
0.126021
0.126268
0.125281
0.125763
0.125726
0.126259
0.125809
0.125357
0.125647
0.125738
0.125848
0.125928
0.126001
0.126004
0.126144
0.126069
0.126057
0.126019
0.125995
0.125862
0.125609
0.12546
0.125842
0.126034
0.126094
0.125946
0.125907
0.126093
0.126082
0.125847
0.124939
0.125938
0.126853
0.125922
0.124927
0.12616
0.126382
0.126285
0.126568
0.127445
0.126761
0.125216
0.126262
0.125119
0.127501
0.126615
0.126771
0.127411
0.127895
0.128431
0.126504
0.127171
0.124876
0.127884
0.125939
0.128969
0.127972
0.124764
0.12722
0.128161
0.125394
0.12801
0.130425
0.128263
0.128104
0.121495
0.121312
0.129988
0.135619
0.129752
0.129451
0.127882
0.123662
0.127589
0.129249
0.129613
0.128697
0.124314
0.127035
0.125288
0.129043
0.129199
0.126629
0.126792
0.126668
0.127628
0.125501
0.126343
0.124919
0.126701
0.126992
0.127109
0.126174
0.126568
0.125571
0.125807
0.124831
0.126278
0.126453
0.125907
0.125969
0.126086
0.125768
0.124976
0.125851
0.12624
0.12584
0.125577
0.125239
0.125939
0.125893
0.125937
0.125898
0.125918
0.126004
0.125907
0.125977
0.125891
0.125927
0.125846
0.125349
0.125458
0.125845
0.125947
0.125996
0.125875
0.125775
0.126059
0.126148
0.125368
0.125663
0.125547
0.126851
0.125329
0.12581
0.125444
0.126534
0.126129
0.126572
0.127218
0.126441
0.126322
0.124553
0.126473
0.126351
0.127071
0.126812
0.126931
0.128213
0.127958
0.127414
0.125079
0.126967
0.125831
0.126844
0.128829
0.127205
0.12672
0.125294
0.129001
0.126041
0.128578
0.129725
0.129085
0.125903
0.117109
0.123983
0.130007
0.135473
0.127904
0.130541
0.125473
0.127117
0.124648
0.129754
0.129053
0.127588
0.127327
0.122682
0.12709
0.128875
0.128846
0.126994
0.125869
0.126735
0.126772
0.126572
0.124509
0.126181
0.1258
0.127027
0.126715
0.125946
0.126245
0.125826
0.124329
0.125612
0.125806
0.126194
0.125719
0.125732
0.125904
0.124894
0.125385
0.125366
0.125974
0.125393
0.125
0.125256
0.125323
0.125448
0.125455
0.125525
0.125453
0.125645
0.125492
0.125556
0.125483
0.125486
0.125371
0.125197
0.125061
0.125392
0.125585
0.125614
0.125479
0.125496
0.125665
0.125729
0.125489
0.124538
0.125568
0.126541
0.125504
0.124549
0.125756
0.126111
0.125836
0.126114
0.127017
0.126491
0.124866
0.125947
0.124859
0.127116
0.126348
0.126491
0.127012
0.127599
0.128081
0.126208
0.126923
0.12464
0.127343
0.125658
0.128588
0.127458
0.124535
0.127017
0.127889
0.125054
0.127827
0.130246
0.12808
0.127752
0.121215
0.121127
0.130165
0.135192
0.128896
0.128831
0.127631
0.123394
0.127311
0.129029
0.128984
0.128235
0.12405
0.126616
0.124953
0.128839
0.12884
0.126175
0.126322
0.126173
0.127433
0.125171
0.125946
0.124633
0.126263
0.126847
0.126697
0.125707
0.126265
0.125197
0.125387
0.124574
0.125835
0.12613
0.125601
0.125628
0.125682
0.125392
0.124615
0.125471
0.125796
0.125372
0.125145
0.124806
0.125384
0.125412
0.125394
0.125408
0.125366
0.125467
0.125366
0.125462
0.125377
0.125433
0.125353
0.124948
0.12506
0.125345
0.125512
0.125503
0.1254
0.125406
0.125595
0.125717
0.124954
0.125253
0.125071
0.12627
0.124893
0.12535
0.125037
0.126073
0.125857
0.126065
0.126884
0.126103
0.12594
0.124247
0.12607
0.126044
0.126663
0.126371
0.126433
0.127868
0.127605
0.127121
0.124898
0.126614
0.125552
0.126657
0.128473
0.126742
0.126349
0.124926
0.128702
0.12571
0.128033
0.129361
0.128807
0.125498
0.116994
0.123696
0.130055
0.13474
0.126965
0.130133
0.12521
0.126759
0.12435
0.129262
0.128515
0.127402
0.126871
0.122498
0.126727
0.128653
0.128446
0.126498
0.125546
0.126402
0.126291
0.126201
0.124249
0.125778
0.125494
0.126598
0.126216
0.125476
0.125747
0.125431
0.124021
0.125205
0.125439
0.125837
0.125252
0.125265
0.125457
0.124535
0.125042
0.124983
0.125607
0.125018
0.12456
0.124827
0.124941
0.125015
0.12498
0.125059
0.124955
0.125065
0.12496
0.125031
0.125019
0.125093
0.124928
0.124774
0.124629
0.124973
0.125147
0.125217
0.125111
0.125051
0.125225
0.125308
0.125141
0.124168
0.125102
0.126101
0.12526
0.124283
0.125419
0.125837
0.125365
0.125898
0.126665
0.12612
0.124589
0.125534
0.124537
0.126806
0.12602
0.126133
0.126624
0.1272
0.127776
0.126011
0.126446
0.124279
0.127158
0.125241
0.128472
0.127136
0.124276
0.126697
0.127367
0.124599
0.127595
0.129592
0.127508
0.127369
0.120868
0.121152
0.130161
0.134439
0.128231
0.128548
0.127169
0.123187
0.12684
0.128976
0.128376
0.12798
0.123798
0.126404
0.124671
0.128563
0.128465
0.125937
0.125852
0.126064
0.126932
0.124831
0.125561
0.124292
0.125961
0.126346
0.126214
0.125438
0.125883
0.124837
0.125117
0.124293
0.125484
0.125704
0.125181
0.125272
0.125347
0.124951
0.12439
0.125032
0.125496
0.124981
0.12475
0.124522
0.124994
0.125071
0.124963
0.124956
0.124874
0.125022
0.124909
0.124976
0.125003
0.12504
0.12501
0.124535
0.124621
0.125007
0.125073
0.125204
0.124997
0.124968
0.125236
0.125401
0.124694
0.124922
0.124744
0.126106
0.124625
0.124999
0.124797
0.125936
0.125529
0.125719
0.126552
0.12584
0.125554
0.124029
0.125812
0.125618
0.12648
0.125978
0.126084
0.127491
0.127389
0.126758
0.124527
0.126278
0.125171
0.126177
0.128183
0.126671
0.125993
0.124959
0.12824
0.125288
0.128046
0.129035
0.128275
0.125049
0.116883
0.123519
0.130221
0.134145
0.126276
0.129692
0.124941
0.126436
0.124342
0.129344
0.128254
0.126959
0.126781
0.122405
0.126398
0.128331
0.128199
0.126073
0.125093
0.126035
0.126066
0.125894
0.123917
0.125467
0.125117
0.126358
0.125985
0.125086
0.125633
0.125151
0.123703
0.124979
0.125111
0.125448
0.124987
0.124966
0.125268
0.124255
0.124698
0.124704
0.125197
0.124658
0.124302
0.124493
0.124571
0.124667
0.124619
0.124643
0.124594
0.1247
0.124628
0.124709
0.12461
0.124763
0.124579
0.12444
0.124311
0.124633
0.124864
0.124916
0.124777
0.124745
0.124927
0.125034
0.124773
0.123967
0.124813
0.125803
0.124813
0.123986
0.125027
0.125441
0.125281
0.12545
0.126323
0.125774
0.124297
0.125316
0.124216
0.126323
0.125665
0.12589
0.126272
0.126951
0.127337
0.125778
0.126029
0.12405
0.126716
0.125107
0.128077
0.12686
0.124172
0.126301
0.127259
0.124465
0.127554
0.129501
0.127502
0.126983
0.120598
0.121102
0.130271
0.133672
0.127499
0.128071
0.127025
0.123035
0.126496
0.128995
0.128107
0.12756
0.123718
0.126038
0.124401
0.128218
0.128134
0.125379
0.125736
0.125579
0.126616
0.12468
0.125351
0.124121
0.125578
0.126093
0.125991
0.125111
0.125646
0.124519
0.12474
0.124026
0.125197
0.12554
0.124877
0.12484
0.125091
0.124631
0.123976
0.124709
0.125236
0.124613
0.124394
0.12415
0.124673
0.124657
0.124567
0.124573
0.12461
0.124615
0.124606
0.124631
0.124566
0.124683
0.124594
0.124233
0.12434
0.1246
0.124774
0.124908
0.124776
0.124626
0.124923
0.125054
0.124269
0.124682
0.124415
0.12576
0.124429
0.124649
0.124307
0.125372
0.125182
0.125374
0.126109
0.125509
0.125357
0.123761
0.125423
0.125338
0.125975
0.125847
0.125847
0.127191
0.126831
0.126459
0.124147
0.125846
0.125011
0.12584
0.127987
0.126176
0.125606
0.124617
0.127867
0.124969
0.127788
0.128843
0.12804
0.124742
0.116779
0.123342
0.130245
0.133496
0.126011
0.129409
0.124664
0.126202
0.124131
0.129033
0.127861
0.126776
0.126305
0.12226
0.126056
0.128021
0.127805
0.12616
0.124785
0.125919
0.125881
0.125765
0.123765
0.125205
0.124957
0.126213
0.125734
0.124946
0.125206
0.12493
0.123572
0.124696
0.124952
0.125314
0.124645
0.124764
0.124935
0.124015
0.124354
0.124414
0.125098
0.124401
0.123982
0.124275
0.124356
0.124455
0.124381
0.124433
0.124279
0.124464
0.124349
0.124499
0.124393
0.124467
0.124367
0.124163
0.124052
0.124428
0.124581
0.124751
0.1245
0.124524
0.124601
0.124776
0.124496
0.123703
0.124613
0.125742
0.124619
0.123739
0.124917
0.125115
0.124909
0.125217
0.126219
0.125615
0.124123
0.125067
0.124118
0.126159
0.125377
0.125474
0.126145
0.126684
0.127031
0.125438
0.125663
0.123735
0.126516
0.124921
0.127793
0.126717
0.123729
0.126152
0.127054
0.124178
0.127248
0.129252
0.127107
0.126714
0.120367
0.120984
0.130272
0.133425
0.126911
0.127719
0.126793
0.122925
0.126332
0.128834
0.127959
0.127466
0.12351
0.125779
0.124137
0.127964
0.127852
0.125216
0.125302
0.12539
0.126512
0.124486
0.125031
0.123934
0.125253
0.126076
0.125748
0.124791
0.125412
0.124434
0.124452
0.123897
0.125065
0.125269
0.124567
0.124766
0.124833
0.124442
0.123774
0.124512
0.125011
0.124479
0.124234
0.1239
0.124392
0.124408
0.124427
0.124316
0.124306
0.124417
0.124235
0.124506
0.124336
0.124464
0.124329
0.124009
0.124083
0.124347
0.124537
0.124632
0.12453
0.12454
0.124682
0.124803
0.124103
0.124317
0.124224
0.12563
0.1241
0.124509
0.124354
0.125468
0.124918
0.125218
0.126084
0.125229
0.125136
0.123651
0.125036
0.125167
0.125807
0.125463
0.125418
0.127005
0.126641
0.126446
0.123918
0.125639
0.124891
0.125679
0.127849
0.125932
0.12532
0.12437
0.127783
0.124766
0.127612
0.12871
0.127927
0.124487
0.116725
0.123115
0.130331
0.132999
0.125582
0.129148
0.124631
0.126029
0.123944
0.128948
0.128108
0.126538
0.126236
0.122015
0.12583
0.127981
0.127552
0.125622
0.124782
0.12551
0.125678
0.125385
0.123603
0.124987
0.124683
0.125897
0.125526
0.124714
0.125192
0.124577
0.123225
0.124453
0.12487
0.124993
0.124548
0.12449
0.124813
0.123781
0.124247
0.124291
0.124756
0.124181
0.123845
0.124002
0.124298
0.124212
0.124096
0.124209
0.124143
0.124213
0.124041
0.124177
0.124226
0.124235
0.124148
0.124006
0.123809
0.124234
0.124307
0.124392
0.12436
0.124247
0.124504
0.124676
0.124344
0.123478
0.124394
0.125293
0.124492
0.123549
0.124454
0.125229
0.124749
0.125073
0.125792
0.125321
0.124094
0.124814
0.123807
0.125841
0.125236
0.125343
0.12581
0.126422
0.126956
0.125294
0.125481
0.123388
0.126327
0.124779
0.127639
0.126358
0.123576
0.125799
0.126812
0.123907
0.127061
0.129042
0.126965
0.126449
0.120127
0.121163
0.130316
0.132654
0.126761
0.127585
0.126476
0.122913
0.126023
0.128583
0.128076
0.127153
0.12335
0.125539
0.124101
0.12782
0.127586
0.125224
0.125044
0.125368
0.126245
0.124215
0.124818
0.123756
0.125228
0.125927
0.125529
0.124754
0.125085
0.124047
0.124207
0.123632
0.124788
0.124946
0.124521
0.124666
0.124639
0.124164
0.123577
0.124313
0.124713
0.124201
0.123976
0.123799
0.124285
0.124278
0.124162
0.124239
0.124042
0.124191
0.124098
0.124113
0.124262
0.12421
0.12424
0.123803
0.123862
0.124247
0.124352
0.124366
0.124212
0.12421
0.124453
0.124754
0.123849
0.124141
0.124022
0.125413
0.124086
0.124261
0.123978
0.125156
0.124833
0.124884
0.1259
0.12522
0.124949
0.123446
0.125029
0.124982
0.125712
0.125275
0.125589
0.126725
0.126407
0.12608
0.123875
0.125421
0.124777
0.125355
0.12755
0.126105
0.125067
0.124248
0.127391
0.124713
0.127201
0.128572
0.127516
0.124295
0.116755
0.123021
0.130093
0.132761
0.125305
0.128788
0.124404
0.12583
0.124046
0.128744
0.127942
0.126327
0.126057
0.121797
0.125645
0.1277
0.127422
0.12541
0.124459
0.125399
0.12557
0.125246
0.123443
0.124934
0.124515
0.12596
0.125508
0.124507
0.125015
0.124539
0.123135
0.124132
0.124448
0.124987
0.12429
0.124551
0.124578
0.123711
0.124053
0.124125
0.124699
0.12408
0.123742
0.123844
0.123966
0.124056
0.124039
0.124024
0.123832
0.123943
0.123935
0.124001
0.123982
0.124034
0.123931
0.123861
0.123695
0.123999
0.124258
0.124387
0.124066
0.124126
0.124305
0.124528
0.124149
0.123388
0.124159
0.125384
0.124284
0.12352
0.124624
0.125009
0.124584
0.124978
0.125867
0.125063
0.123877
0.124675
0.123619
0.125789
0.125095
0.125192
0.125633
0.126373
0.126754
0.125359
0.125254
0.123246
0.126236
0.124629
0.127478
0.126282
0.12354
0.125606
0.126659
0.123749
0.126895
0.129016
0.126849
0.126235
0.120019
0.121083
0.130136
0.132638
0.126401
0.127469
0.126341
0.122961
0.125819
0.12858
0.127979
0.126871
0.123353
0.125242
0.123926
0.127689
0.127389
0.124834
0.12506
0.125039
0.126032
0.12426
0.124655
0.123665
0.124832
0.125646
0.125564
0.124553
0.125183
0.123794
0.124168
0.123377
0.12449
0.124925
0.124285
0.124368
0.124502
0.123966
0.123571
0.124175
0.124672
0.123989
0.123887
0.123613
0.123999
0.124089
0.123949
0.123988
0.123849
0.123954
0.123874
0.124055
0.123948
0.124012
0.123982
0.12374
0.12373
0.123989
0.124158
0.124417
0.124101
0.124033
0.124405
0.124568
0.123873
0.123913
0.123778
0.125129
0.123996
0.124078
0.123935
0.125089
0.124649
0.12489
0.125607
0.124887
0.124933
0.123377
0.124702
0.124792
0.125502
0.125102
0.125223
0.126639
0.126523
0.125908
0.12386
0.125218
0.124584
0.125132
0.127385
0.125771
0.124991
0.124033
0.127033
0.124364
0.127104
0.128535
0.12747
0.124194
0.116769
0.123056
0.130232
0.132359
0.125345
0.128626
0.124348
0.125699
0.123792
0.128521
0.12794
0.126228
0.125796
0.121612
0.125433
0.127591
0.12724
0.125531
0.12432
0.125356
0.125432
0.125023
0.123353
0.124672
0.124399
0.125592
0.125114
0.12453
0.124706
0.124254
0.123049
0.124171
0.124574
0.124797
0.12436
0.12427
0.124715
0.12346
0.123806
0.124086
0.124482
0.123949
0.123481
0.123767
0.123818
0.124057
0.123865
0.124052
0.123819
0.123948
0.123857
0.123975
0.123872
0.124024
0.123892
0.123663
0.123624
0.123952
0.124156
0.124147
0.124026
0.124068
0.124147
0.124422
0.124016
0.123197
0.124022
0.125199
0.124276
0.12329
0.124237
0.124894
0.124593
0.124777
0.125654
0.125131
0.123752
0.124458
0.123666
0.125562
0.125029
0.125066
0.125759
0.126255
0.126679
0.125019
0.125407
0.123331
0.125998
0.124322
0.127083
0.126316
0.123465
0.125519
0.126214
0.12373
0.126502
0.128885
0.126747
0.126085
0.119957
0.121334
0.12993
0.132227
0.126185
0.127191
0.126329
0.122813
0.125721
0.128271
0.127886
0.126704
0.123171
0.125028
0.123874
0.127607
0.127323
0.124678
0.124744
0.124974
0.125975
0.124013
0.124417
0.123558
0.124766
0.125518
0.125176
0.12445
0.125035
0.124009
0.123936
0.123319
0.124708
0.124814
0.124193
0.124315
0.124636
0.123886
0.123403
0.124199
0.124426
0.124111
0.12373
0.123445
0.123869
0.123935
0.123943
0.123929
0.12389
0.123832
0.123864
0.123877
0.12394
0.124032
0.12383
0.123608
0.123776
0.12381
0.124238
0.124288
0.123969
0.124057
0.124152
0.12437
0.12367
0.123886
0.123603
0.125175
0.123775
0.123842
0.12365
0.124899
0.12454
0.124914
0.125622
0.124713
0.124655
0.123165
0.124469
0.124852
0.12539
0.125193
0.125165
0.12658
0.126198
0.125917
0.123978
0.12512
0.12447
0.125016
0.127002
0.125622
0.124942
0.123959
0.126966
0.124224
0.126829
0.128465
0.127367
0.124132
0.116946
0.123007
0.12986
0.132279
0.12519
0.128304
0.124393
0.125614
0.12377
0.12851
0.127854
0.125843
0.125849
0.121481
0.125262
0.127622
0.127062
0.125174
0.124363
0.12503
0.125243
0.125029
0.123169
0.124503
0.124356
0.125665
0.125429
0.12441
0.124944
0.12403
0.122985
0.123956
0.124289
0.124713
0.124146
0.1242
0.124336
0.123352
0.12383
0.123872
0.124608
0.123749
0.123543
0.12365
0.123818
0.123979
0.12375
0.12401
0.123669
0.123689
0.123662
0.12386
0.123935
0.123838
0.123804
0.123726
0.123504
0.123914
0.123955
0.124238
0.123957
0.123865
0.124251
0.124456
0.124021
0.123086
0.123854
0.124889
0.123937
0.123183
0.124036
0.124603
0.124415
0.124789
0.125554
0.12486
0.123705
0.124294
0.123381
0.125414
0.124877
0.125028
0.125476
0.126162
0.126391
0.124877
0.125415
0.123357
0.125788
0.124117
0.126713
0.125734
0.123531
0.125424
0.125866
0.123466
0.12635
0.128791
0.126792
0.125923
0.11992
0.121486
0.129963
0.131975
0.126324
0.126853
0.126122
0.122854
0.125576
0.128122
0.128015
0.126594
0.123082
0.124921
0.123788
0.127486
0.127138
0.124847
0.124586
0.12498
0.125781
0.123897
0.124383
0.123398
0.124624
0.125549
0.125247
0.124484
0.124703
0.12358
0.123798
0.123381
0.124411
0.124695
0.124307
0.124212
0.124457
0.123782
0.123209
0.123949
0.124582
0.12384
0.123685
0.1235
0.123732
0.12408
0.123803
0.12404
0.123707
0.123789
0.123692
0.123937
0.123782
0.123913
0.123915
0.123479
0.123556
0.124038
0.124056
0.124055
0.124021
0.123876
0.12405
0.124554
0.12355
0.123606
0.12365
0.125129
0.123667
0.12385
0.123614
0.124837
0.124481
0.124622
0.125596
0.124905
0.124515
0.123065
0.12451
0.12474
0.12527
0.124858
0.125387
0.126373
0.126144
0.125433
0.124093
0.125015
0.124365
0.124778
0.126677
0.125601
0.124936
0.124037
0.126744
0.124059
0.126523
0.128313
0.127239
0.12398
0.117003
0.123142
0.129739
0.131877
0.125274
0.128115
0.124223
0.125445
0.123865
0.128304
0.127837
0.125717
0.125693
0.121432
0.12508
0.127367
0.127031
0.12504
0.124144
0.12508
0.125186
0.124796
0.12309
0.124494
0.124222
0.125466
0.125
0.124309
0.124772
0.124224
0.122818
0.123793
0.124432
0.124718
0.124051
0.12429
0.124544
0.123339
0.123646
0.123993
0.124293
0.12403
0.1235
0.123558
0.123696
0.12379
0.12374
0.123797
0.123714
0.123892
0.123681
0.123702
0.123571
0.123932
0.123665
0.123569
0.123523
0.123724
0.124118
0.124169
0.12383
0.123887
0.123986
0.124267
0.123657
0.123084
0.123663
0.125122
0.123909
0.123034