/*--------------------------------*- C++ -*----------------------------------*\
| =========                 |                                                 |
| \\      /  F ield         | OpenFOAM: The Open Source CFD Toolbox           |
|  \\    /   O peration     | Version:  2312                                  |
|   \\  /    A nd           | Website:  www.openfoam.com                      |
|    \\/     M anipulation  |                                                 |
\*---------------------------------------------------------------------------*/
FoamFile
{
    version     2.0;
    format      ascii;
    arch        "LSB;label=32;scalar=64";
    class       volScalarField;
    location    "4";
    object      p;
}
// * * * * * * * * * * * * * * * * * * * * * * * * * * * * * * * * * * * * * //

dimensions      [1 -1 -2 0 0 0 0];

internalField   nonuniform List<scalar> 
50000
(
94788.1
94781.8
94770.6
94760.5
94750.6
94748.8
94755.9
94764.6
94767.6
94768.4
94766.4
94764.5
94763.5
94762
94761.8
94762.6
94762
94761.7
94761.2
94761.1
94760.7
94760.3
94760
94760.1
94760.7
94760.6
94760.4
94760
94760.7
94760.6
94760.7
94760.3
94759.7
94760.2
94761.1
94760.4
94760.9
94761.1
94761.3
94760.5
94761.3
94761.2
94761.7
94761.8
94761
94761
94761.1
94760.6
94760.6
94760.6
94760.7
94760.9
94761.3
94761.2
94761.4
94762.4
94762.5
94761.7
94761.8
94762.1
94761.8
94761.9
94761.3
94761.8
94762.1
94762.4
94762.1
94762.2
94762.1
94761.7
94762.2
94762.1
94761.7
94761.9
94762.1
94762
94761.3
94761.2
94761.4
94761.6
94761.9
94762
94762.1
94761.8
94761.9
94762.1
94761.8
94760.7
94761.7
94762
94761.2
94760.5
94761.3
94761.5
94761.5
94761.5
94761.4
94761.4
94761.4
94761.5
94756.2
94750.7
94740.6
94731.1
94722.3
94720.7
94728.2
94736.2
94740.6
94741.3
94739.2
94738.4
94737.7
94735.9
94734.7
94735.7
94735.2
94734.7
94734.8
94734.9
94734.8
94734.3
94733.8
94733
94733.4
94733.9
94733.5
94733.6
94734.5
94734.7
94734.8
94734.2
94733.8
94733.1
94734.1
94733.6
94734.5
94735.2
94735.2
94734.1
94734.2
94734.8
94735.5
94735.9
94735.1
94734.3
94734.9
94734.7
94734.5
94734.4
94734.7
94734.9
94735.2
94734.7
94735.8
94736.4
94736.4
94735.8
94734.9
94735.2
94735.1
94735.1
94734.7
94735.7
94736.3
94736.4
94735.7
94735.2
94735.1
94735.5
94736.4
94735.9
94735.5
94735
94735.4
94735.1
94734.3
94735
94735.2
94735.6
94736.1
94735.9
94735.6
94735
94735
94735.3
94734.7
94734.2
94735.6
94736.1
94735.1
94733.9
94734.4
94734.8
94734.8
94734.8
94734.7
94734.9
94735
94734.6
94725.1
94719.3
94711.2
94701.9
94693.1
94696.1
94706.2
94714.6
94717.4
94719.4
94719
94718.1
94717.1
94715.9
94716
94716.9
94717.1
94717
94716.6
94716.1
94715.7
94715.5
94715.1
94715.3
94716.2
94716.2
94716.2
94715.4
94715.9
94715.7
94715.9
94715.5
94715.3
94716
94716.9
94716.3
94716.6
94716.3
94716.4
94716.3
94717.2
94717.2
94717.1
94717.3
94717
94717.4
94717.6
94717.1
94717.3
94717.3
94717.4
94717.4
94717.8
94717.7
94717.5
94717.9
94717.9
94717.5
94717.9
94718.2
94718
94718
94717.2
94717.3
94717.3
94717.6
94717.9
94717.9
94717.8
94716.8
94717.4
94717.2
94717.1
94717.7
94717.7
94717.4
94716.7
94716.4
94716.7
94716.9
94716.9
94716.9
94717.3
94717
94717.3
94716.9
94716
94715.3
94715.4
94715.3
94714.9
94714.7
94715.6
94716.3
94716.5
94716.5
94716.5
94716.4
94715.6
94716.6
94693.8
94688.9
94683
94674.3
94664
94671.8
94681.5
94688.6
94692.2
94693.4
94693.2
94693.2
94692.2
94691.3
94690.8
94691.4
94690.9
94690.8
94690.2
94690.4
94690.2
94689.7
94689.2
94688.6
94689.8
94689.6
94689.4
94689.2
94689.9
94690.2
94690.3
94689.6
94688.8
94689.3
94690.1
94689.4
94689.9
94690.6
94690.6
94689.5
94690.4
94690.3
94691
94691.2
94690.4
94690
94690.5
94690.1
94689.9
94689.9
94690.1
94690.3
94690.7
94690.3
94691
94691.8
94691.8
94691
94690.7
94691
94690.7
94690.8
94690.3
94691.1
94691.6
94691.9
94691.2
94691.4
94691
94691.1
94691.7
94691.3
94690.9
94690.9
94691.1
94690.9
94690
94690.3
94690.7
94691.1
94691.5
94691.3
94691
94690.9
94691
94691.1
94691
94689.5
94690.4
94690.8
94689.9
94689.6
94690.3
94690.5
94690.8
94690.5
94690.6
94690.6
94690.4
94690.6
94666.5
94663.4
94660.4
94655.3
94649.1
94654.6
94661.8
94666.3
94668.8
94670.3
94669.9
94670.3
94669.7
94669.2
94669
94669.5
94669.5
94669.5
94669.7
94668.9
94668.5
94668.2
94667.9
94668.2
94668.3
94668.7
94668.9
94668.7
94668.8
94668.6
94668.7
94668.3
94668.9
94668.7
94669.4
94669.3
94669.8
94669.2
94669.3
94669.7
94669.8
94670.3
94670.1
94670.3
94670.4
94670.7
94671
94670.8
94671
94670.9
94671.1
94671.1
94671.3
94671.2
94671.1
94670.9
94670.9
94671.1
94671.1
94671.1
94671.1
94671
94670.4
94670.4
94670.3
94670.5
94670.9
94670.5
94670.6
94669.9
94670.3
94670.1
94670.5
94670.5
94670.3
94670.1
94669.6
94669.2
94669.4
94669.6
94669.7
94669.8
94670.1
94669.9
94669.7
94669.4
94669.2
94668.8
94668.1
94668.4
94667.6
94668.2
94668.5
94668.8
94669
94669.3
94669.2
94669.2
94669.2
94669.1
94641.8
94640
94639.2
94635.4
94631.7
94635.1
94640.5
94643
94644.8
94645.8
94645.6
94645.7
94645.4
94644.8
94644.7
94644.7
94644.8
94644.6
94644.2
94644.2
94643.9
94643.5
94643
94643
94643.7
94643.8
94643.5
94643.3
94643.9
94644
94644.1
94643.5
94642.8
94643.6
94644.3
94643.7
94643.9
94644.5
94644.5
94643.6
94644.7
94644.5
94645
94645.1
94644.2
94644.3
94644.6
94644
94644.2
94644.1
94644.4
94644.2
94644.7
94644.6
94644.7
94645.7
94645.7
94644.8
94645.1
94645.3
94645
94645.2
94644.7
94645.1
94645.4
94645.8
94645.3
94645.5
94645.3
94645
94645.6
94645.3
94645
94645.1
94645.4
94645.1
94644.2
94644.2
94644.6
94645
94645.2
94645.2
94645
94644.8
94645.3
94645
94645
94644.3
94644.5
94644.6
94644.1
94644.3
94644.5
94644.6
94644.6
94644.5
94644.6
94644.6
94644.3
94644.6
94618.4
94618.1
94618.1
94615.5
94612.8
94614.8
94618.3
94619.9
94621.2
94621.6
94622.1
94622.1
94622
94621.8
94621.6
94621.9
94621.6
94621.8
94621.7
94621.4
94620.8
94620.7
94620.2
94620.5
94620.6
94620.8
94621
94621.3
94621.1
94621
94621.1
94620.7
94621.6
94621
94621.5
94621.5
94622.2
94621.6
94621.7
94622.2
94622.1
94622.6
94622.4
94622.6
94622.9
94623.1
94623.4
94623.5
94623.6
94623.5
94623.7
94623.8
94623.9
94623.6
94623.6
94623.3
94623.3
94623.7
94623.4
94623.4
94623.4
94623.2
94622.9
94622.8
94622.7
94622.9
94623.1
94622.8
94622.8
94622.5
94622.8
94622.5
94623.1
94622.6
94622.4
94622.1
94621.8
94621.6
94621.9
94622
94622
94622.2
94622.3
94622.2
94622
94621.8
94621.7
94621.4
94621.4
94621.4
94621
94621.1
94621.1
94621.4
94621.5
94621.8
94621.7
94621.9
94622
94622
94595.3
94595.6
94595.6
94593.7
94591.4
94593.3
94595.4
94596.3
94597.7
94597.8
94597.9
94598.1
94597.6
94597.6
94597.5
94597.9
94597.2
94597.1
94596.9
94596.9
94596.5
94596.1
94595.7
94595.9
94596.3
94596.5
94596.2
94596.2
94596.6
94596.7
94596.7
94596.2
94595.8
94596.5
94597.1
94596.6
94596.8
94597.2
94597.2
94596.6
94597.5
94597.4
94597.8
94597.8
94597.1
94597.4
94597.5
94597
94597.3
94597.2
94597.4
94597.2
94597.7
94597.8
94597.5
94598.4
94598.5
94597.6
94598.1
94598.2
94598
94598.2
94597.7
94597.9
94598.1
94598.4
94598.2
94598.3
94598.2
94597.9
94598.3
94598
94597.9
94597.8
94598.1
94597.9
94597.5
94597
94597.4
94597.4
94597.8
94597.8
94597.6
94597.4
94597.2
94597.5
94597.2
94597.5
94597.5
94597.6
94597.5
94597.3
94597.3
94597.2
94597.4
94597.2
94597.5
94597.5
94597.5
94597.5
94571.8
94572.1
94572.1
94570.8
94569.1
94570.8
94571.9
94572.5
94573.1
94573.4
94573.7
94574.1
94573.7
94573.4
94572.9
94572.9
94573.1
94573.3
94573.1
94572.7
94572.7
94572.4
94572.1
94572.2
94572.3
94572.7
94572.5
94573
94572.8
94572.9
94573.1
94572.6
94573.3
94572.5
94573.3
94573.2
94573.8
94573.4
94573.5
94574
94573.8
94574.3
94574.2
94574.3
94574.7
94574.7
94575.1
94575.2
94575.4
94575.2
94575.5
94575.5
94575.6
94575.3
94575.4
94575
94575
94575.5
94575
94575.1
94575
94574.8
94574.6
94574.6
94574.5
94574.6
94574.7
94574.6
94574.5
94574.4
94574.5
94574.3
94574.8
94574.3
94574.3
94573.9
94573.8
94573.7
94573.5
94573.8
94573.9
94573.6
94573.8
94573.8
94573.6
94573.5
94573.5
94573.7
94573.9
94573.8
94573.9
94573.6
94573.5
94573.6
94573.5
94573.7
94573.7
94573.8
94574
94573.9
94547.8
94547.9
94548
94546.9
94545.8
94546.6
94547.7
94548
94548.3
94548.9
94549.5
94549.6
94549.1
94548.9
94548.8
94548.7
94548.5
94548.5
94548.4
94548.3
94547.9
94547.8
94547.4
94547.7
94547.8
94547.9
94547.9
94547.9
94548.2
94548.1
94548.2
94548
94547.9
94548.2
94548.7
94548.4
94548.7
94548.9
94549
94548.6
94549.2
94549.2
94549.5
94549.5
94548.9
94549.3
94549.3
94549
94549.3
94549.1
94549.4
94549.2
94549.6
94549.8
94549.4
94550.1
94550.2
94549.5
94550
94550
94549.9
94550
94549.6
94549.7
94549.8
94550.1
94549.9
94550
94549.9
94549.7
94550
94549.7
94549.7
94549.5
94549.5
94549.3
94549.4
94548.9
94549.1
94549.3
94549.2
94549.3
94549
94548.9
94549.1
94549.1
94549.3
94549
94549.4
94549.5
94549.5
94549.1
94548.9
94549.2
94549.1
94549.2
94549.3
94549.4
94549.5
94549.6
94523.3
94523.3
94523.5
94522.4
94522.3
94522.4
94523.1
94523.4
94523.8
94524
94524.9
94524.6
94524.6
94524.4
94524.5
94524.3
94524.1
94524.2
94524
94523.9
94523.6
94523.3
94523.2
94523.1
94523.5
94523.5
94523.6
94523.9
94523.8
94523.8
94524
94523.8
94524.2
94524
94524.3
94524.2
94524.7
94524.6
94524.8
94524.9
94524.7
94525.3
94525.2
94525.2
94525.7
94525.6
94526
94526.1
94526.3
94526.1
94526.5
94526.3
94526.5
94526.1
94526.4
94525.9
94525.9
94526.4
94525.9
94526
94525.9
94525.8
94525.6
94525.6
94525.5
94525.8
94525.6
94525.6
94525.5
94525.4
94525.7
94525.3
94525.6
94525.2
94525.2
94525.1
94524.9
94524.8
94524.7
94524.7
94524.9
94524.8
94524.6
94524.3
94524.6
94524.5
94524.5
94524.9
94525
94525.1
94525.3
94525.2
94524.6
94524.6
94524.9
94525
94525.1
94525.1
94525.3
94525.2
94498.6
94498.4
94498.5
94497.7
94498.2
94498.2
94498.7
94498.7
94498.9
94499
94499.4
94499.4
94499.6
94499.2
94498.8
94498.8
94498.7
94498.6
94498.8
94498.7
94498.8
94498.5
94498.2
94498.6
94498.6
94498.7
94498.4
94498.6
94498.9
94499.1
94499.2
94498.8
94498.9
94498.8
94499.4
94499.2
94499.4
94499.3
94499.5
94499.5
94499.8
94499.9
94500.2
94500.2
94499.8
94500.2
94500.1
94499.9
94500.2
94500.1
94500.3
94500.2
94500.5
94500.6
94500.2
94500.8
94500.9
94500.3
94500.7
94500.7
94500.7
94500.7
94500.5
94500.5
94500.6
94500.5
94500.6
94500.7
94500.6
94500.5
94500.4
94500.5
94500.4
94500.3
94500.5
94500.2
94500
94499.9
94499.9
94500
94500.1
94499.7
94499.7
94499.3
94499.5
94499.9
94499.9
94500.3
94500.2
94500.4
94500.4
94501
94500
94500.1
94500.1
94500.2
94500.2
94500.4
94500.4
94500.4
94473.6
94473.5
94473.7
94472.8
94473.7
94473.3
94473.7
94473.6
94474
94473.9
94474.5
94474.4
94474.4
94473.8
94474
94473.9
94473.7
94473.8
94473.8
94473.8
94473.6
94473.8
94473.6
94473.8
94473.4
94473.7
94473.6
94473.9
94473.9
94473.8
94474
94474.2
94474.3
94474
94474.6
94474.3
94474.8
94474.6
94474.8
94475
94475.1
94475.4
94475.3
94475.3
94475.8
94475.6
94476.1
94476.1
94476.4
94476.1
94476.5
94476.3
94476.5
94476.2
94476.5
94476
94476.1
94476.4
94476
94476
94476
94475.9
94475.7
94475.8
94475.7
94475.8
94475.7
94475.9
94475.6
94475.7
94475.7
94475.6
94475.7
94475.3
94475.2
94475
94475.1
94475
94475.1
94475.1
94474.9
94474.9
94474.6
94474.7
94474.7
94474.8
94475
94474.9
94474.9
94475.1
94475.5
94475.8
94475.1
94475.3
94475.3
94475.3
94475.4
94475.5
94475.5
94475.6
94448.2
94448.2
94448.3
94447.3
94448.5
94448.1
94448.4
94448.4
94448.7
94448.7
94449.3
94449.1
94449.2
94449
94448.9
94448.5
94448.6
94448.5
94448.6
94448.5
94448.4
94448.4
94448.3
94448.2
94448.3
94448.6
94448.6
94448.2
94448.8
94448.6
94448.8
94448.4
94448.8
94448.9
94448.9
94448.9
94449.3
94449.5
94449.5
94449.3
94449.4
94449.7
94449.9
94449.9
94449.7
94450
94449.9
94449.9
94450.1
94450
94450.2
94450.1
94450.3
94450.5
94450.1
94450.5
94450.7
94450.3
94450.5
94450.5
94450.5
94450.5
94450.3
94450.3
94450.4
94450.6
94450.4
94450.2
94450.4
94450.3
94450.5
94450
94450.1
94450
94450
94449.9
94449.8
94449.9
94449.9
94449.9
94449.8
94449.6
94449.4
94449.2
94449.6
94449.4
94449.6
94450
94450
94450
94450.2
94450.6
94449.9
94450.1
94450.2
94450.1
94450.1
94450
94450.2
94450.2
94422.7
94422.8
94422.7
94421.8
94422.6
94422.6
94422.7
94422.8
94423.2
94423.1
94423.5
94423.6
94423.5
94423.5
94422.8
94422.8
94422.7
94422.8
94423.1
94422.8
94423
94422.8
94422.7
94422.8
94422.8
94422.8
94422.8
94423.1
94423.3
94423.3
94423.4
94423.3
94423.5
94423.1
94423.7
94423.5
94424
94423.7
94424.1
94424.1
94424.1
94424.5
94424.5
94424.5
94425
94424.8
94425.2
94425.2
94425.6
94425.3
94425.7
94425.4
94425.6
94425.3
94425.6
94425.2
94425.3
94425.5
94425.2
94425.1
94425.1
94425.1
94425
94425.1
94425
94424.9
94425.1
94425
94425.1
94424.9
94424.7
94424.8
94424.8
94424.8
94424.8
94424.5
94424.3
94424.7
94424.6
94424.6
94424.5
94424.3
94424
94423.8
94423.9
94424.3
94424.3
94424.8
94424.5
94424.7
94424.6
94425
94424.5
94424.7
94424.7
94424.8
94424.7
94424.8
94424.7
94424.7
94396.6
94396.8
94396.7
94396.3
94396.9
94397
94397.2
94397.3
94397.4
94397.3
94397.7
94397.5
94397.6
94397.1
94397.2
94397.3
94397.1
94397.3
94397.1
94397.3
94397.2
94397.3
94397.1
94397.3
94397
94397.1
94397.2
94397.4
94397.4
94397.3
94397.6
94397.7
94397.7
94397.6
94398.1
94397.8
94398.1
94398.1
94398.5
94398.2
94398.6
94398.5
94398.7
94398.7
94398.6
94398.8
94398.8
94398.8
94399
94398.9
94399.1
94399
94399.2
94399.3
94399
94399.3
94399.5
94399.2
94399.3
94399.4
94399.3
94399.3
94399.2
94399.1
94399.2
94399.3
94399.1
94399.5
94399
94399.2
94399.2
94399.2
94399
94398.7
94398.7
94398.8
94398.8
94398.7
94398.7
94398.7
94398.6
94398.7
94398.4
94398.3
94398.3
94398.6
94398.4
94398.8
94399
94398.7
94398.9
94398.8
94398.8
94399
94398.8
94398.8
94398.8
94398.8
94398.8
94398.8
94370.4
94370.3
94370.4
94370.7
94371.2
94371.4
94371.3
94371.3
94371.5
94371.5
94371.6
94371.5
94371.5
94371.4
94371.3
94371.2
94371.3
94371.1
94371.2
94371.3
94371.2
94371.6
94371.4
94371
94371.2
94371.4
94371.5
94371.1
94371.5
94371.5
94371.7
94371.4
94371.8
94371.9
94371.8
94372.1
94372.2
94372.3
94372.2
94372.4
94372.3
94372.7
94372.8
94372.8
94373.2
94373
94373.5
94373.5
94373.9
94373.5
94374
94373.7
94373.9
94373.6
94373.9
94373.5
94373.6
94373.7
94373.5
94373.5
94373.4
94373.4
94373.3
94373.5
94373.3
94373.4
94373.3
94373.1
94373.2
94373.5
94373.4
94373
94373.2
94372.9
94372.9
94373
94372.8
94372.9
94373.1
94373.1
94372.7
94372.8
94372.5
94372.5
94372.7
94372.5
94372.6
94373.3
94373.4
94372.7
94372.9
94372.8
94373
94373
94373.2
94373.1
94372.9
94372.8
94372.8
94372.9
94344
94343.6
94343.9
94344.7
94345.1
94345.3
94345.2
94345.1
94345.1
94345.4
94345.4
94345.1
94345.4
94345.2
94345.1
94344.8
94344.7
94344.9
94345
94344.9
94345
94345
94344.8
94344.9
94345
94344.8
94344.8
94345
94345.4
94345.4
94345.5
94345.4
94345.5
94345.3
94345.7
94345.4
94346
94345.7
94346.2
94346.1
94346.2
94346.3
94346.5
94346.5
94346.5
94346.6
94346.7
94346.7
94346.9
94346.9
94347
94346.9
94347.1
94347.2
94347
94347.2
94347.3
94347.1
94347.2
94347
94347.1
94347.1
94347.1
94347
94347.1
94347.2
94347.3
94347.1
94347.2
94346.8
94346.9
94347
94346.6
94347
94346.9
94346.6
94346.9
94346.9
94347.1
94346.8
94346.6
94346.6
94346.5
94346.5
94346.4
94346.5
94346.5
94347.1
94347
94346.6
94346.6
94346.7
94346.9
94346.8
94346.9
94346.9
94346.9
94346.8
94346.8
94346.9
94317.5
94317.2
94317.8
94318.1
94318.6
94318.8
94318.8
94318.7
94318.7
94318.6
94318.8
94318.4
94318.7
94318.4
94318.5
94318.2
94318.4
94318.6
94318.3
94318.6
94318.6
94318.7
94318.6
94318.8
94318.4
94318.5
94318.6
94318.8
94318.7
94318.6
94319.2
94319.2
94319.3
94319.1
94319.3
94319.2
94319.7
94319.5
94320
94319.8
94320.1
94320
94320.1
94320.1
94320.5
94320.3
94320.8
94320.7
94321.2
94320.8
94321.3
94320.9
94321.2
94320.9
94321.2
94320.8
94320.9
94321
94320.8
94320.7
94320.8
94320.8
94320.7
94320.9
94320.7
94320.8
94320.5
94320.9
94320.4
94320.7
94320.5
94320.7
94320.4
94320.2
94320.1
94320.2
94320.4
94320.6
94320.3
94320.1
94320.3
94320.4
94320.2
94320.3
94320
94320.1
94320
94320.7
94320.2
94320.2
94319.6
94319.9
94320.2
94320.3
94320.1
94320.2
94320.3
94320.3
94320.4
94320.2
94291.5
94291.5
94291.6
94291.5
94291.8
94292.1
94292.1
94291.9
94292
94291.7
94291.9
94291.5
94291.4
94291.5
94291.4
94291.5
94291.8
94291.7
94291.8
94291.9
94291.6
94292.1
94291.7
94291.9
94291.6
94291.9
94292.1
94291.6
94292.2
94292.1
94292.2
94292.1
94292.2
94292.4
94292.6
94292.8
94292.6
94293
94292.8
94293
94292.9
94293.2
94293.4
94293.4
94293.4
94293.5
94293.6
94293.6
94293.8
94293.7
94293.9
94293.9
94294
94294
94293.9
94294
94294.1
94294
94294.1
94294
94294
94294
94294
94294
94294
94294.1
94294
94293.8
94293.9
94294.2
94293.9
94293.7
94293.8
94293.7
94293.6
94293.7
94293.2
94293.7
94293.9
94293.7
94293.7
94293.7
94293.5
94293.4
94293.4
94293.6
94293.4
94294.2
94293.3
94293
94292.5
94292.8
94293.4
94293.5
94293.5
94293.5
94293.4
94293.4
94293.3
94293.4
94265.7
94266
94265.2
94265.5
94265.1
94265.2
94265.1
94264.8
94264.8
94264.5
94264.7
94264.2
94264.5
94264.3
94264.8
94264.7
94264.5
94264.7
94264.7
94264.8
94264.8
94264.9
94264.8
94264.7
94265
94264.9
94264.7
94264.9
94265.3
94265.3
94265.4
94265.3
94265.5
94265.5
94265.8
94265.4
94265.9
94265.7
94266.1
94266.1
94266.2
94266.3
94266.5
94266.5
94266.8
94266.7
94267.1
94267
94267.5
94267.1
94267.6
94267.2
94267.5
94267.2
94267.5
94267.2
94267.2
94267.3
94267.2
94267.1
94267.1
94267.1
94267.1
94267.2
94267.3
94267.3
94267.2
94267.1
94267.2
94266.9
94266.9
94267
94266.5
94266.8
94266.8
94266.6
94266.8
94266.6
94267.1
94266.9
94266.6
94266.7
94266.7
94266.8
94266.8
94266.8
94266.6
94267.1
94266.5
94265.8
94265.9
94265.8
94266.5
94266.6
94266.8
94266.6
94266.5
94266.7
94266.6
94266.7
94239.6
94240.1
94239.3
94238.4
94238.1
94237.7
94237.7
94237.5
94237.3
94237
94237.3
94236.8
94237.4
94237.1
94237.4
94237.2
94237.3
94237.5
94237.2
94237.7
94237.7
94237.9
94237.7
94237.8
94237.8
94237.6
94237.7
94237.9
94237.8
94237.8
94238.4
94238.2
94238.5
94238.4
94238.2
94238.4
94238.9
94238.7
94239.1
94238.9
94239.3
94239.1
94239.3
94239.3
94239.3
94239.4
94239.5
94239.5
94239.7
94239.6
94239.8
94239.8
94239.8
94239.9
94239.8
94239.9
94240
94239.9
94239.9
94240
94239.9
94239.9
94239.8
94239.9
94239.7
94239.8
94239.7
94240.1
94239.6
94239.9
94239.9
94239.9
94239.5
94239.6
94239.3
94239.3
94239.9
94239.5
94239.6
94239.7
94239.5
94239.8
94239.7
94239.9
94239.6
94239.8
94239.4
94239.5
94239.3
94238.8
94238.9
94238.7
94239.3
94239.2
94239.4
94239.4
94239.4
94239.6
94239.6
94239.5
94212.1
94212.7
94212.2
94210.6
94210.6
94210.4
94210.3
94209.9
94209.7
94208.9
94209.4
94209.3
94209.5
94209.6
94209.7
94209.8
94210
94210.1
94209.9
94210.2
94209.9
94210.4
94210
94210.4
94210
94210
94210.5
94210
94210.6
94210.4
94210.6
94210.7
94210.7
94210.7
94211
94211.2
94211
94211.4
94211.3
94211.4
94211.4
94211.7
94211.9
94211.9
94212.2
94212
94212.4
94212.4
94212.8
94212.4
94212.9
94212.6
94212.8
94212.5
94212.8
94212.5
94212.6
94212.6
94212.5
94212.4
94212.5
94212.5
94212.4
94212.5
94212.5
94212.6
94212.4
94212.2
94212.4
94212.5
94212.1
94212.2
94212.1
94212.3
94212.1
94212.2
94211.9
94212
94212.3
94212
94212.1
94212.4
94212.1
94212.2
94212
94212.4
94212.3
94212.1
94211.8
94211.5
94211.7
94211.5
94211.9
94211.8
94211.9
94211.9
94212
94211.8
94211.9
94211.9
94183.8
94184.2
94183
94182.9
94182.6
94182.6
94182.5
94182
94181.7
94180.5
94180.6
94181.1
94181.9
94182.1
94182.1
94182.2
94181.9
94182.3
94182
94182.3
94182.3
94182.4
94182.6
94182.2
94182.6
94182.6
94182.4
94182.6
94182.9
94182.8
94183.1
94183.1
94183.2
94183.1
94183.5
94183.1
94183.6
94183.3
94183.8
94183.8
94183.9
94184
94184.2
94184.2
94184.3
94184.3
94184.4
94184.4
94184.6
94184.5
94184.7
94184.6
94184.7
94184.8
94184.7
94184.8
94184.9
94184.8
94184.8
94184.7
94184.8
94184.7
94184.7
94184.7
94184.8
94185
94184.8
94184.7
94184.9
94184.8
94184.6
94184.6
94184.4
94184.3
94184.6
94184.5
94184.6
94184.5
94184.5
94184.5
94184.4
94184.4
94184.5
94184.5
94184.5
94184.5
94184.6
94184.5
94184.2
94183.9
94184.2
94184.1
94184.2
94184.4
94184.3
94184.3
94184.2
94184.3
94184.3
94184.3
94155.5
94155.8
94154.7
94155.2
94154.4
94154
94154.1
94153.6
94153.6
94152.4
94152.6
94153.3
94153.8
94154.1
94153.9
94154.2
94154
94154.1
94154.2
94154.4
94154.4
94154.5
94154.9
94154.7
94154.8
94154.6
94154.6
94154.7
94154.7
94154.9
94155.3
94155.1
94155.3
94155.2
94155.1
94155.3
94155.8
94155.6
94156.1
94156
94156
94156.2
94156.2
94156.3
94156.5
94156.4
94156.8
94156.7
94157
94156.8
94157.1
94156.9
94157.1
94156.9
94157.1
94156.9
94156.9
94156.9
94156.9
94156.8
94156.9
94156.8
94156.8
94156.8
94156.9
94156.8
94156.8
94156.9
94156.6
94157
94156.8
94156.7
94156.4
94156.5
94156.2
94156.2
94156.6
94156.8
94156.7
94156.7
94156.6
94156.6
94156.6
94156.7
94156.7
94156.6
94156.5
94156.3
94156.1
94156.2
94155.9
94155.9
94156
94156.1
94156.2
94156.5
94156.3
94156.5
94156.4
94156.5
94126.6
94126.9
94126.8
94125.8
94126
94125.8
94125.8
94125.5
94125.2
94124.8
94124.6
94125.2
94125.5
94126
94125.5
94125.8
94125.8
94125.9
94125.9
94126.1
94126.1
94126.4
94126.5
94126.6
94126.1
94126.1
94126.6
94126.1
94126.7
94126.7
94126.8
94126.9
94127
94127
94127.2
94127.4
94127.2
94127.6
94127.4
94127.4
94127.7
94127.6
94128
94128
94128.1
94128.1
94128.3
94128.2
94128.5
94128.3
94128.6
94128.5
94128.6
94128.6
94128.6
94128.7
94128.7
94128.6
94128.7
94128.6
94128.6
94128.5
94128.6
94128.5
94128.8
94128.6
94128.5
94128.5
94128.5
94128.4
94128.3
94128.6
94128.2
94128.5
94128.3
94128.2
94128.1
94128.3
94128.4
94128.2
94128.2
94128.4
94128.5
94128.3
94128.2
94128.4
94128.3
94128.2
94127.9
94128.3
94128.3
94128
94127.8
94127.7
94128.1
94128
94128.3
94128.2
94128.4
94128.4
94097.2
94097.1
94096.9
94096.4
94096.7
94096.9
94096.9
94096.8
94096.6
94096.4
94096.3
94096.9
94097.3
94097.9
94097.1
94097.4
94096.9
94097.5
94097
94097.5
94097.6
94097.5
94097.8
94097.6
94097.9
94097.8
94097.7
94097.9
94098.2
94098
94098.5
94098.5
94098.6
94098.7
94098.7
94098.5
94098.9
94098.8
94099.2
94099.2
94099.5
94099.4
94099.5
94099.6
94099.8
94099.7
94100
94099.9
94100.2
94100.1
94100.4
94100.1
94100.4
94100.2
94100.4
94100.1
94100.4
94100.2
94100.1
94100.3
94100.2
94100.1
94100.1
94100
94099.8
94100.1
94100.1
94100.1
94100.3
94100.2
94100
94099.9
94100
94099.7
94100
94100.1
94099.9
94100.1
94099.7
94099.8
94099.8
94099.6
94099.9
94099.7
94099.8
94099.9
94099.7
94099.6
94099.5
94100
94100.1
94099.7
94099.2
94099.4
94099.6
94099.7
94099.7
94099.7
94099.9
94099.8
94067.9
94067.7
94067.5
94068.2
94068
94068.1
94068.1
94067.9
94068
94067.8
94068.1
94068.3
94068.5
94068.8
94068.1
94068.7
94068.3
94068.7
94068.4
94068.8
94068.6
94068.9
94069.2
94068.8
94069.3
94069.2
94069.1
94069.4
94069.2
94069.4
94069.9
94069.9
94069.9
94069.7
94070
94069.9
94070.1
94070.2
94070.6
94070.7
94070.4
94070.8
94070.8
94070.8
94071
94070.9
94071.1
94071
94071.3
94071.1
94071.4
94071.2
94071.4
94071.4
94071.4
94071.5
94071.3
94071.4
94071.4
94071.2
94071.4
94071.3
94071.3
94071.2
94071.2
94071.4
94071.4
94071.4
94071.2
94071.6
94071.4
94071.2
94070.8
94071.1
94070.9
94071.4
94071.1
94071.5
94071.1
94071.3
94071.1
94070.9
94070.6
94071
94071.1
94071.1
94070.9
94070.4
94070.9
94070.8
94070.6
94070.7
94070.4
94070.7
94070.7
94071.1
94070.9
94071.1
94070.9
94071.1
94038.9
94038.9
94039.3
94039.9
94039.5
94039.2
94039
94038.8
94038.4
94038.1
94039
94038.9
94039.2
94039.6
94039
94039.4
94039.4
94039.4
94039.7
94039.6
94039.7
94039.9
94040
94039.8
94040
94039.9
94040.3
94039.9
94040.4
94040.5
94040.5
94040.4
94041
94040.8
94041.2
94041
94041.1
94041.2
94041.2
94041.3
94041.5
94041.5
94041.7
94041.8
94042.1
94042
94042.3
94042.2
94042.4
94042.3
94042.5
94042.4
94042.6
94042.4
94042.6
94042.7
94042.5
94042.4
94042.5
94042.3
94042.4
94042.3
94042.3
94042.2
94042.2
94042.4
94042
94042.4
94042.4
94042.2
94042.1
94042.4
94042
94042.4
94042.2
94042
94042.1
94042.2
94042.2
94041.9
94042
94042
94042
94042.1
94041.8
94041.8
94041.9
94041.2
94041.8
94041.6
94042.4
94042
94041.9
94041.8
94042
94041.9
94042.2
94042.1
94042.1
94042.1
94009.3
94009.6
94009.4
94009.9
94009.9
94009.6
94009.3
94009
94008.7
94008.9
94009.6
94009.5
94009.7
94010.3
94009.7
94010.1
94009.6
94010.1
94009.9
94010.3
94010.5
94010.4
94010.8
94010.5
94010.6
94010.8
94010.6
94010.9
94011.2
94011
94011.4
94011.3
94011.4
94011.6
94011.5
94011.7
94011.8
94012
94012.1
94012.2
94012.5
94012.3
94012.5
94012.5
94012.7
94012.6
94012.8
94012.7
94013
94012.8
94013.1
94012.9
94013.1
94013
94013.2
94013
94013.4
94013.2
94013.1
94013.3
94013.1
94013.1
94013.1
94012.9
94013
94012.8
94013
94013
94013.3
94013.1
94013
94013
94012.9
94012.7
94013
94013
94013.1
94013.2
94012.8
94012.8
94012.8
94012.5
94013
94012.8
94012.7
94012.7
94012.1
94012.1
94012.1
94012.6
94013.3
94013.1
94012.8
94012.7
94012.9
94013
94013
94012.9
94013.1
94013
93979.5
93979.5
93978.9
93979.4
93979.5
93979.6
93979.2
93979.4
93979
93979.6
93979.9
93979.9
93979.9
93980.1
93980
93980.3
93980.2
93980.6
93980.3
93980.8
93980.6
93980.9
93981.3
93980.9
93981.1
93981
93981.1
93981.5
93981.3
93981.6
93982
93981.9
93981.9
93982
93982.1
93982.2
93982.3
93982.5
93982.6
93982.7
93982.5
93982.8
93983.1
93983
93983.2
93983.2
93983.4
93983.3
93983.8
93983.5
93983.7
93983.5
93983.7
93983.6
93983.8
93983.7
93983.5
93983.8
93983.6
93983.4
93983.6
93983.5
93983.5
93983.4
93983.6
93983.4
93983.5
93983.4
93983.4
93983.5
93983.6
93983.4
93983.3
93983.4
93983.3
93983.7
93983.4
93983.8
93983.4
93983.4
93983.2
93982.8
93982.7
93982.9
93983.1
93983.3
93982.7
93982.8
93982.5
93983.2
93983.4
93983.7
93983.4
93983.4
93983.4
93983.4
93983.4
93983.5
93983.4
93983.4
93950
93950.2
93950
93950.1
93949.7
93949.6
93949.3
93949.3
93948.7
93948.8
93949.4
93949.8
93949.8
93950
93950
93950.2
93950.5
93950.4
93950.6
93950.6
93950.9
93951
93951
93951.1
93951.4
93951.3
93951.6
93951.2
93951.7
93951.9
93951.8
93951.7
93952.2
93952.4
93952.3
93952.4
93952.6
93952.4
93952.8
93952.9
93952.9
93952.9
93953
93953.3
93953.4
93953.3
93953.4
93953.4
93953.4
93953.4
93953.7
93953.5
93953.8
93953.7
93953.8
93954
93953.9
93953.6
93954
93953.7
93953.7
93953.7
93953.7
93953.6
93953.4
93953.6
93953.4
93953.6
93953.7
93953.8
93953.5
93953.7
93953.6
93953.8
93953.6
93953.4
93953.6
93953.6
93953.7
93953.3
93953.4
93953.1
93953.3
93953.4
93953.2
93953.2
93953.3
93953.1
93953
93953.2
93953.6
93953.8
93953.4
93953.6
93953.6
93953.4
93953.5
93953.7
93953.4
93953.4
93919.7
93920.1
93920.3
93920.3
93919.7
93919.5
93919
93918.9
93918.5
93919
93919.2
93919.6
93919.7
93919.7
93919.9
93920.3
93919.9
93920.3
93920.4
93920.5
93920.9
93920.9
93921.1
93920.9
93921.2
93921.4
93921
93921.4
93921.6
93921.6
93921.9
93921.9
93922
93921.9
93922.2
93922.4
93922.2
93922.5
93922.8
93923
93923.1
93923
93923.1
93922.9
93923.5
93923.2
93923.5
93923.4
93923.6
93923.6
93923.7
93923.6
93924
93923.7
93923.9
93923.6
93924
93923.7
93923.5
93923.9
93923.6
93923.8
93923.6
93923.7
93923.5
93923.3
93923.5
93923.5
93923.7
93923.8
93923.6
93923.4
93923.7
93923.3
93923.6
93923.5
93923.9
93923.8
93923.4
93923.5
93923.2
93923
93923.5
93923.2
93923.3
93923.2
93923.1
93923.1
93923
93923.2
93923.5
93923.8
93923.6
93923.7
93923.6
93923.6
93923.5
93923.4
93923.5
93923.5
93888.5
93888.7
93888.1
93888.3
93888.5
93888.4
93887.9
93888.1
93887.9
93888.7
93888.7
93888.9
93889
93888.8
93889.5
93889.7
93889.7
93890
93890.1
93890.2
93890.2
93890.3
93890.8
93890.6
93890.7
93890.6
93890.8
93891.2
93890.9
93891.3
93891.6
93891.8
93891.7
93891.7
93892
93891.7
93892
93892.3
93892.1
93892.1
93892.3
93892.3
93892.9
93892.7
93892.6
93892.9
93892.9
93892.9
93893.4
93892.9
93893.3
93893.1
93893.1
93893.2
93893.4
93893.4
93893.2
93893.6
93893.3
93893.1
93893.3
93893
93893.3
93893
93893.2
93893.1
93893.3
93893.2
93893.3
93893
93893.3
93893.1
93892.9
93893.1
93893.2
93893.3
93893.2
93893.4
93893.2
93892.9
93892.9
93892.6
93892.6
93892.8
93892.9
93893
93892.7
93893
93893
93892.8
93893.1
93893.3
93893.2
93893.3
93893.3
93893.3
93893.2
93893.2
93893.2
93893.2
93857.4
93857.4
93856.6
93856.8
93856.7
93857.2
93856.9
93856.9
93856.8
93857
93857.9
93858
93858.2
93857.8
93858.7
93858.5
93859.1
93858.9
93859.4
93859.6
93859.6
93859.7
93859.8
93860.2
93860.1
93860.1
93860.4
93860.1
93860.4
93860.7
93860.6
93860.7
93861.2
93861.3
93861
93861.2
93861.6
93861.3
93861.6
93861.8
93861.8
93861.9
93861.8
93862.3
93862.3
93862.1
93862.4
93862.5
93862.3
93862.5
93862.8
93862.5
93862.7
93862.6
93862.8
93862.7
93862.8
93862.5
93862.9
93862.6
93862.9
93862.6
93862.9
93862.5
93862.6
93862.4
93862.4
93862.4
93862.5
93862.7
93862.4
93862.5
93862.5
93862.5
93862.7
93862.2
93862.6
93862.4
93862.6
93862.1
93862.2
93862.1
93862.2
93862.4
93862.1
93862.1
93862.3
93862.7
93862.5
93862.2
93862.2
93862.1
93862.3
93862.5
93862.5
93862.6
93862.6
93862.8
93862.7
93862.6
93825.8
93825.9
93826
93825.9
93824.2
93825.4
93825.2
93825.7
93825.6
93826.2
93827.4
93827
93827.4
93827
93827.8
93827.7
93827.8
93828
93828.3
93828.3
93828.7
93828.9
93829
93828.9
93829.3
93829.3
93829
93829.4
93829.5
93829.6
93829.8
93830.1
93829.9
93830
93830.2
93830.5
93830.2
93830.6
93830.9
93831
93831.1
93831.1
93831.1
93830.9
93831.5
93831.1
93831.5
93831.1
93831.6
93831.6
93831.5
93831.5
93831.9
93831.6
93831.8
93831.8
93831.8
93831.8
93831.5
93831.9
93831.5
93831.9
93831.5
93831.6
93831.9
93831.6
93831.6
93831.2
93831.6
93831.8
93831.7
93831.4
93831.9
93831.5
93831.5
93831.4
93832.1
93831.7
93831.5
93831.5
93831.4
93831.4
93831.6
93831.3
93831.3
93831.4
93831.7
93832.2
93832
93831.6
93831.1
93831
93831.4
93831.4
93831.5
93831.8
93831.7
93831.7
93831.7
93831.6
93793.4
93793.1
93793.1
93792.6
93791.8
93793.3
93793.7
93794.2
93794.7
93795.1
93796
93795.6
93796
93795.6
93796.4
93796.4
93796.7
93796.9
93797.1
93797.1
93797.4
93797.4
93797.7
93797.9
93797.9
93798
93798
93798.4
93798
93798.5
93798.7
93799
93798.8
93798.9
93799.3
93798.9
93799.2
93799.4
93799.2
93799.3
93799.4
93799.4
93800
93799.9
93799.8
93800.2
93800.1
93800.2
93800.6
93800.1
93800.4
93800.6
93800.3
93800.5
93800.6
93800.7
93800.6
93800.8
93800.5
93800.3
93800.5
93800.2
93800.5
93800.5
93800.3
93800.5
93800.7
93800.4
93800.6
93800.2
93800.5
93800.3
93800.2
93800.4
93800.6
93800.4
93800.4
93800.5
93800.4
93800.3
93800.1
93800.1
93800.3
93800.4
93800.3
93800.4
93800.4
93801
93800.8
93800.6
93800.2
93800.2
93800.3
93800.4
93800.5
93800.5
93800.6
93800.7
93800.6
93800.7
93761.3
93760.5
93760.4
93760.5
93760.5
93761.6
93762.6
93762.8
93763.4
93763.3
93764.5
93764
93764.1
93764
93764.6
93764.4
93765.2
93764.9
93765.4