/*--------------------------------*- C++ -*----------------------------------*\
| =========                 |                                                 |
| \\      /  F ield         | OpenFOAM: The Open Source CFD Toolbox           |
|  \\    /   O peration     | Version:  2312                                  |
|   \\  /    A nd           | Website:  www.openfoam.com                      |
|    \\/     M anipulation  |                                                 |
\*---------------------------------------------------------------------------*/
FoamFile
{
    version     2.0;
    format      ascii;
    arch        "LSB;label=32;scalar=64";
    class       surfaceScalarField;
    location    "4";
    object      phi;
}
// * * * * * * * * * * * * * * * * * * * * * * * * * * * * * * * * * * * * * //

dimensions      [0 3 -1 0 0 0 0];

oriented        oriented;

internalField   nonuniform List<scalar> 
99400
(
0.000221514
-0.000132731
0.00041869
-0.000104115
0.000542627
-2.63803e-05
0.000640415
4.48042e-06
0.000634053
0.000113573
0.000532373
0.000214052
0.000399935
0.000250206
0.00026516
0.000258182
0.000146382
0.0002481
5.55176e-05
0.000226386
-1.11128e-05
0.000208693
5.65993e-06
0.000132135
7.76784e-05
8.4056e-05
9.39981e-05
0.000147267
4.39848e-05
0.000221461
1.11517e-06
0.000222541
-2.14881e-05
0.000210853
-4.51086e-05
0.000220934
-5.64386e-05
0.000218219
-2.87031e-05
0.000189124
9.43295e-06
0.000189163
3.63502e-05
0.000211317
4.25722e-05
0.00024347
4.23468e-06
0.000300007
-3.64524e-05
0.000314838
-5.85758e-05
0.000309384
-8.65044e-05
0.000329083
-0.00010813
0.000337418
-7.85582e-05
0.000301447
-2.07082e-05
0.000289101
3.36971e-05
0.000309241
6.53829e-05
0.000349449
4.75566e-05
0.00041728
-1.40732e-06
0.000467516
-4.09043e-05
0.000477745
-7.27731e-05
0.000491397
-7.59699e-05
0.000485202
-6.42537e-06
0.000435712
5.81531e-05
0.000464989
2.74626e-05
0.000585635
-3.0771e-05
0.000639273
-5.27395e-05
0.000631123
-6.28502e-07
0.000586829
7.30382e-05
0.000596063
7.85605e-05
0.000696263
5.79719e-05
0.000755525
4.62495e-05
0.000781901
3.10445e-05
0.000822507
1.24832e-05
0.000864798
-6.66243e-06
0.000906044
-2.21536e-05
0.00090247
-3.77768e-05
0.000861783
-5.21346e-05
0.000821646
-7.38978e-05
0.000791999
-7.70239e-05
0.00073853
2.17501e-07
0.000624668
6.74496e-05
0.000602443
5.03823e-05
0.000655748
1.25203e-05
0.000646701
-1.82505e-05
0.000611443
-4.11355e-05
0.000577027
-7.04839e-05
0.000558278
-9.84124e-05
0.000533031
-7.71089e-05
0.000460745
-1.9803e-05
0.000402636
3.40217e-05
0.000385005
4.91475e-05
0.000403476
1.18547e-05
0.000436445
-2.28293e-05
0.000415699
-6.93517e-06
0.000347726
4.98664e-05
0.000290142
8.25638e-05
0.000298312
6.17791e-05
0.000336561
3.49628e-05
0.000327933
1.38126e-05
0.000308404
-2.37115e-05
0.000311711
-5.85777e-05
0.000296544
-5.3441e-05
0.000244554
-3.411e-05
0.000218901
-1.13062e-05
0.000204494
3.17879e-05
0.000173773
6.68965e-05
0.000171801
7.31606e-05
0.000191142
5.11793e-05
0.000210294
3.1996e-05
0.000198783
8.46163e-06
0.000194914
-3.57015e-05
0.000207737
-5.758e-05
0.000177957
-2.6815e-06
9.401e-05
8.67319e-05
5.26653e-05
0.000125564
9.67311e-05
9.64886e-05
0.000158417
6.31176e-05
0.00015676
4.21498e-05
0.000138671
2.31041e-05
0.000131312
8.56992e-06
0.000121666
3.0839e-06
0.000107716
3.23066e-06
9.73995e-05
5.83797e-06
9.04594e-05
9.46016e-05
0.000182335
-0.00031502
0.000315416
-0.000237145
0.000446427
-0.000157329
0.000548823
-9.7839e-05
0.000581399
8.10994e-05
0.000471434
0.000324142
0.000322855
0.00039891
0.000213564
0.000367587
0.000131409
0.000330364
4.14909e-05
0.000316423
-2.40913e-05
0.000274411
4.06902e-06
0.000104108
6.4751e-05
2.35052e-05
8.98161e-05
0.000122349
5.65742e-05
0.000254867
1.97937e-06
0.000277303
-5.34363e-05
0.000266467
-9.21914e-05
0.000259929
-7.92046e-05
0.00020545
-3.69887e-05
0.000147117
2.68215e-06
0.000149706
3.61479e-05
0.000178078
6.17965e-05
0.000218067
4.2334e-05
0.000319754
-2.4581e-05
0.000382067
-8.76969e-05
0.000372831
-0.000124857
0.000366607
-0.000122304
0.000335198
-7.83409e-05
0.000257806
-2.43394e-05
0.000235428
2.26863e-05
0.000262559
6.82555e-05
0.00030425
8.1534e-05
0.000404411
1.23231e-05
0.000537195
-7.35347e-05
0.000564138
-0.000109518
0.000528005
-8.30187e-05
0.000459234
-1.16873e-05
0.000364885
6.15867e-05
0.000392243
5.18766e-05
0.000595958
-4.28636e-05
0.000734773
-6.66826e-05
0.000655904
-5.2073e-06
0.00052613
5.76879e-05
0.000533932
7.91678e-05
0.000675736
4.31815e-05
0.000792755
1.67967e-05
0.000809751
1.61285e-05
0.000824776
9.2538e-06
0.000873359
-7.01266e-06
0.00092408
-1.63466e-05
0.000913571
-1.85321e-05
0.000865654
-3.75519e-05
0.000842247
-7.08027e-05
0.00082666
-6.08593e-05
0.00072969
5.36732e-06
0.000559284
6.92187e-05
0.00053941
8.22306e-05
0.000643714
4.15604e-05
0.000688437
-7.31161e-06
0.000661252
-4.17017e-05
0.000612374
-8.30747e-05
0.00060043
-0.000101087
0.000551558
-6.58719e-05
0.000426
-1.45943e-05
0.000351809
4.6738e-05
0.000324103
7.48391e-05
0.000375875
2.56396e-07
0.00051155
-4.23264e-05
0.000458686
4.88046e-07
0.000305268
4.94365e-05
0.000241526
9.4502e-05
0.000253576
0.000105004
0.000326404
6.56937e-05
0.000367623
-8.5525e-08
0.000374515
-5.88396e-05
0.000370774
-7.61813e-05
0.000314165
-5.48653e-05
0.000223485
-2.89247e-05
0.000193191
1.27878e-06
0.000174509
4.30128e-05
0.00013224
8.80501e-05
0.000126958
0.000111905
0.000167481
9.43305e-05
0.000228079
4.02983e-05
0.000253025
-1.82593e-05
0.000253649
-6.23972e-05
0.000252034
-6.08301e-05
0.000176534
3.66671e-06
2.96389e-05
8.03597e-05
-2.39134e-05
0.000129256
4.79538e-05
0.000117899
0.000169898
8.50352e-05
0.000189743
3.90545e-05
0.000184763
-7.24149e-06
0.000177722
-1.56319e-05
0.000130181
-2.6462e-07
9.24604e-05
2.14502e-05
7.57848e-05
4.9161e-05
6.28454e-05
0.00014387
0.000133531
-0.000448535
0.00024503
-0.000348626
0.000337634
-0.000249911
0.00039475
-0.000154925
0.000396224
7.96732e-05
0.000318738
0.000401713
0.000212356
0.000505379
0.000149367
0.000430634
6.97638e-05
0.000410018
4.06527e-06
0.000382186
-1.624e-05
0.000294782
1.10784e-05
7.68511e-05
3.11373e-05
3.50619e-06
1.82816e-05
0.000135273
-1.02167e-05
0.000283444
-4.29849e-05
0.000310144
-6.66623e-05
0.000290241
-6.33345e-05
0.00025671
-4.56281e-05
0.000187834
-2.7186e-05
0.000128762
-6.54364e-06
0.000129154
1.62672e-05
0.000155363
1.67901e-05
0.000217647
-2.56942e-07
0.000336927
-3.20769e-05
0.00041404
-7.42527e-05
0.000415178
-9.00151e-05
0.000382523
-8.56703e-05
0.000330993
-5.99605e-05
0.000232232
-2.61839e-05
0.000201792
1.0104e-05
0.000226418
1.93616e-05
0.000295148
1.49187e-05
0.000409025
-8.81281e-06
0.000561105
-5.51987e-05
0.000610732
-6.54275e-05
0.000538475
-4.86661e-05
0.000442681
-1.76891e-05
0.000334113
5.00023e-06
0.000369768
-3.07179e-06
0.000604297
-3.54084e-05
0.000767441
-4.36422e-05
0.000664553
-3.67546e-06
0.000486428
2.72235e-05
0.000503309
3.04498e-05
0.000672842
2.24768e-05
0.000801321
2.30494e-05
0.000809806
1.72635e-05
0.000831156
5.61039e-06
0.000885556
-6.0939e-06
0.000936389
-1.47799e-05
0.000922801
-2.25968e-05
0.000874075
-2.43803e-05
0.000844635
-3.04392e-05
0.000833348
-3.23427e-05
0.000731991
6.44638e-06
0.000520786
3.83923e-05
0.000507742
3.74182e-05
0.000645036
2.52352e-05
0.000701187
4.58279e-06
0.000682537
-8.89736e-06
0.000626409
-2.77234e-05
0.000619666
-3.95843e-05
0.000563599
-3.07962e-05
0.000417409
-1.48272e-05
0.000336026
1.48669e-05
0.000294588
4.52438e-05
0.000345673
3.03354e-05
0.000526676
1.21718e-05
0.000477
1.86354e-05
0.000298946
3.99431e-05
0.000220358
5.89919e-05
0.000234663
6.38589e-05
0.000321681
5.24502e-05
0.000379182
1.13868e-05
0.00041574
-2.01746e-05
0.000402482
-3.72065e-05
0.000331319
-3.877e-05
0.00022515
-1.45111e-05
0.000169029
1.67353e-05
0.000143354
4.26142e-05
0.000106448
6.19681e-05
0.000107687
7.94525e-05
0.000150078
8.38775e-05
0.000223743
6.48047e-05
0.000272197
3.13568e-05
0.000287178
6.79055e-06
0.000276674
-6.16432e-06
0.000189557
1.54993e-05
8.03183e-06
5.41013e-05
-6.24643e-05
6.85943e-05
3.35143e-05
4.98893e-05
0.000188663
3.02604e-05
0.000209426
9.54504e-06
0.000205524
-4.37682e-06
0.000191707
-3.18413e-06
0.000129041
2.51462e-05
6.41734e-05
3.83176e-05
6.26537e-05
1.06486e-05
9.05518e-05
0.000154557
7.95338e-05
-0.000528057
0.000116157
-0.000385236
0.000124157
-0.000257893
0.000115503
-0.000146246
7.44785e-05
0.00012074
3.17075e-05
0.000444568
-7.58563e-06
0.000544769
5.16372e-06
0.000417938
-7.19499e-07
0.000415954
-1.13024e-05
0.000392831
-1.82257e-05
0.000301772
7.54732e-06
5.11402e-05
1.8629e-05
-7.51553e-06
-3.55218e-06
0.000157522
-3.66318e-05
0.0003166
-5.29894e-05
0.000326581
-6.43904e-05
0.000301739
-6.44649e-05
0.000256889
-5.60343e-05
0.000179492
-3.50803e-05
0.000107898
-8.53429e-06
0.000102701
1.91573e-05
0.000127769
2.55808e-05
0.000211328
-4.74661e-06
0.000367372
-3.75196e-05
0.000446955
-6.90549e-05
0.000446873
-9.36993e-05
0.00040732
-9.27262e-05
0.000330159
-6.58038e-05
0.000205448
-2.93412e-05
0.000165472
5.11121e-06
0.000192116
3.20143e-05
0.000268402
2.22584e-05
0.000418935
-2.06764e-05
0.000604195
-5.37868e-05
0.00064406
-7.54583e-05
0.000560409
-6.3895e-05
0.000431328
-2.171e-05
0.000292138
2.15099e-05
0.000326767
1.09794e-05
0.000615061
-4.0236e-05
0.000819016
-4.68948e-05
0.00067154
-9.79973e-06
0.000449602
3.95307e-05
0.000454259
4.98483e-05
0.000662834
2.38564e-05
0.000827736
1.85498e-05
0.000815516
1.48703e-05
0.000835215
4.6114e-06
0.000896201
-6.23701e-06
0.00094765
-1.51153e-05
0.000932082
-1.86527e-05
0.000878007
-2.59551e-05
0.000852329
-5.22173e-05
0.000860019
-4.50851e-05
0.000725188
7.19015e-06
0.000468805
5.46951e-05
0.000460519
5.59939e-05
0.000644024
2.82507e-05
0.000729317
1.85895e-05
0.00069267
2.51098e-06
0.000642853
-2.75975e-05
0.0006501
-4.47059e-05
0.000580966
-3.22724e-05
0.000405196
-5.7007e-06
0.000309647
2.70647e-05
0.000262005
5.05007e-05
0.000322416
3.87113e-05
0.00053868
1.34961e-05
0.000502387
1.72852e-05
0.000295304
4.6566e-05
0.00019122
6.9985e-05
0.000211382
6.87838e-05
0.000323022
4.67202e-05
0.000401403
2.25912e-05
0.000440029
-9.99492e-06
0.000435202
-4.23875e-05
0.000363829
-3.81943e-05
0.00022106
-1.31152e-05
0.000144047
1.73987e-05
0.000112935
4.86e-05
7.53353e-05
7.52031e-05
8.11686e-05
8.61905e-05
0.000139174
8.11941e-05
0.000228825
6.45613e-05
0.000288925
4.95887e-05
0.000302232
2.51752e-05
0.000301161
-5.74007e-06
0.000220543
1.13352e-05
-8.98584e-06
4.74839e-05
-9.85621e-05
5.28317e-05
2.82206e-05
2.08697e-05
0.000220686
2.17387e-06
0.000228173
-2.69705e-06
0.000210447
3.13497e-07
0.000188762
-2.39393e-06
0.000131796
3.57097e-06
5.82515e-05
1.11249e-05
5.51407e-05
1.79812e-06
9.99173e-05
0.000156394
3.5491e-05
-0.00056354
3.18762e-05
-0.000381609
-3.10344e-05
-0.00019497
-0.000117935
-5.93264e-05
-0.000187512
0.000190361
-0.000175242
0.000432374
-0.000113524
0.000483134
-6.48167e-05
0.00036928
-3.25373e-05
0.000383728
-1.31808e-05
0.000373536
-1.48815e-05
0.00030354
3.16995e-06
3.31497e-05
-2.03178e-05
1.60312e-05
-5.82674e-05
0.000195538
-7.33049e-05
0.000331714
-7.98314e-05
0.000333191
-8.48094e-05
0.000306813
-7.37575e-05
0.000245931
-4.38471e-05
0.000149668
-2.94735e-05
9.36118e-05
-1.80053e-05
9.13241e-05
-8.05731e-06
0.000117916
-1.19163e-05
0.000215289
-2.09114e-05
0.000376481
-4.39455e-05
0.000470116
-7.29134e-05
0.000475985
-8.68651e-05
0.000421412
-7.44818e-05
0.000317909
-5.16643e-05
0.000182765
-3.1483e-05
0.000145431
-1.64993e-05
0.000177279
-2.18826e-05
0.000273941
-2.08118e-05
0.000418016
-3.14398e-05
0.000614953
-5.57913e-05
0.000668645
-5.54063e-05
0.000560267
-3.86601e-05
0.000414785
-2.70104e-05
0.000280695
-1.90706e-05
0.000319045
-2.07942e-05
0.000617
-3.8279e-05
0.000836837
-3.54535e-05
0.000668998
-1.08646e-05
0.000425277
2.26937e-06
0.000441401
4.90623e-06
0.000660494
5.52113e-06
0.000827458
6.68341e-06
0.000814693
6.74873e-06
0.000835499
2.64564e-06
0.000900672
-5.43604e-06
0.000956118
-8.56069e-06
0.000935592
-1.15554e-05
0.000881366
-1.1593e-05
0.000852717
-6.94147e-06
0.000855709
-7.14402e-06
0.000725704
6.73486e-06
0.000455215
2.22441e-05
0.000445285
2.59463e-05
0.000640597
2.31724e-05
0.000732384
1.9723e-05
0.000696461
1.30098e-05
0.00064985
-1.21399e-06
0.000664619
8.1395e-07
0.000579225
2.63696e-06
0.000403583
-2.19385e-06
0.000314669
1.57747e-05
0.000244216
4.43542e-05
0.00029401
4.63449e-05
0.000536883
3.93395e-05
0.000509562
3.35818e-05
0.000301209
3.81913e-05
0.000186751
5.29827e-05
0.000196727
6.36402e-05
0.0003125
5.39785e-05
0.000411212
3.18161e-05
0.00046234
8.07811e-06
0.000459062
-5.26396e-06
0.000377283
-8.62901e-06
0.000224525
1.70175e-06
0.00013381
2.89099e-05
8.58182e-05
4.61626e-05
5.81691e-05
6.03469e-05
6.70675e-05
8.3991e-05
0.000115611
9.3449e-05
0.000219449
8.45585e-05
0.000297905
6.88453e-05
0.000318025
5.95623e-05
0.000310515
4.45988e-05
0.000235576
2.46348e-05
1.10351e-05
2.38941e-05
-9.77732e-05
7.02632e-06
4.51404e-05
-1.35826e-05
0.000241352
-2.10747e-05
0.000235714
-2.39356e-05
0.000213367
-2.06817e-05
0.000185565
-6.17627e-06
0.000117335
-1.09557e-06
5.32123e-05
4.29321e-06
4.97916e-05
6.71175e-06
9.75342e-05
0.000163144
9.48448e-06
-0.000573017
-6.83824e-06
-0.000365277
-8.24251e-05
-0.00011937
-0.000197484
5.57497e-05
-0.000276717
0.000269642
-0.00024805
0.000403784
-0.000141091
0.000376251
-8.52813e-05
0.00031352
-3.81695e-05
0.000336675
-8.38039e-06
0.000343804
-6.00362e-06
0.000301231
-2.22216e-06
2.94309e-05
-2.90954e-05
4.2963e-05
-6.86406e-05
0.000235152
-8.81287e-05
0.000351282
-9.19447e-05
0.000337094
-8.13641e-05
0.00029633
-6.92915e-05
0.000233949
-5.70122e-05
0.000137478
-4.14693e-05
7.81572e-05
-2.30327e-05
7.298e-05
-6.73619e-06
0.000101714
-1.6484e-05
0.000225139
-3.97697e-05
0.000399882
-5.02916e-05
0.000480763
-6.41552e-05
0.000489988
-7.9355e-05
0.000436753
-7.65947e-05
0.000315286
-5.9074e-05
0.000165383
-3.68803e-05
0.000123379
-1.4661e-05
0.000155209
-1.28466e-05
0.000272284
-3.20061e-05
0.000437337
-4.70066e-05
0.000630116
-4.70448e-05
0.000668961
-5.24299e-05
0.000565901
-4.96864e-05
0.000412252
-2.88703e-05
0.000260088
-1.34033e-05
0.000303799
-2.3841e-05
0.000627696
-3.82866e-05
0.000851628
-3.27894e-05
0.000663777
-1.21353e-05
0.000404892
2.44601e-05
0.000405086
2.605e-05
0.000659208
1.14225e-05
0.000842417
1.81028e-05
0.000808353
9.79907e-06
0.000844159
-3.54643e-07
0.000911201
-4.26848e-06
0.000960426
-6.7129e-06
0.000938429
-1.45462e-05
0.000889573
-1.75578e-05
0.000856084
-3.68054e-05
0.000875301
-3.43068e-05
0.000723526
7.45069e-06
0.000413751
4.11281e-05
0.00041189
4.04401e-05
0.000641564
2.11584e-05
0.000751948
1.79053e-05
0.000700001
1.22926e-05
0.000655723
3.40797e-06
0.000673774
-1.97393e-06
0.000584892
-4.94723e-06
0.000406771
2.16659e-06
0.000307748
2.21405e-05
0.000224425
4.14352e-05
0.000274892
4.84747e-05
0.000530036
3.97586e-05
0.000518454
3.29378e-05
0.000308187
4.56465e-05
0.000174186
5.87487e-05
0.000183764
5.85412e-05
0.000312846
4.93317e-05
0.000420569
4.27769e-05
0.000469036
3.17072e-05
0.000470254
3.23507e-06
0.000405871
-8.31255e-06
0.000236175
8.08776e-06
0.000117504
3.29516e-05
6.10464e-05
5.45495e-05
3.66593e-05
7.39637e-05
4.77369e-05
8.38188e-05
0.000105838
7.99088e-05
0.000223444
8.17675e-05
0.000296136
8.03573e-05
0.000319518
7.46646e-05
0.00031628
5.15757e-05
0.000258737
2.40935e-05
3.85739e-05
1.40623e-05
-8.76922e-05
-5.90734e-06
6.51611e-05
-2.51073e-05
0.00026061
-2.46043e-05
0.000235266
-1.67599e-05
0.000205582
-9.16506e-06
0.000178022
-1.05216e-05
0.000118737
-9.10053e-06
5.18336e-05
-8.24855e-06
4.89803e-05
-1.59275e-05
0.00010525
0.000147255
-5.42797e-06
-0.000567583
-3.25162e-05
-0.000338178
-0.000108607
-4.32677e-05
-0.000200636
0.000147801
-0.000276133
0.0003452
-0.000246383
0.000374114
-0.000148112
0.000278057
-8.69761e-05
0.000252442
-3.18173e-05
0.000281568
4.13521e-06
0.000307909
3.6238e-06
0.00030181
-1.77896e-05
5.09069e-05
-5.71136e-05
8.23467e-05
-8.68473e-05
0.000264957
-9.69421e-05
0.000361461
-9.92074e-05
0.000339447
-9.95191e-05
0.000296737
-8.41813e-05
0.0002187
-5.66541e-05
0.000110038
-4.28132e-05
6.44047e-05
-3.42276e-05
6.44856e-05
-3.29889e-05
0.000100571
-4.36199e-05
0.000235873
-4.915e-05
0.000405525
-5.79446e-05
0.000489679
-7.2893e-05
0.000505073
-8.31693e-05
0.00044717
-6.89365e-05
0.000301191
-5.209e-05
0.000148673
-4.1234e-05
0.000112665
-3.85586e-05
0.000152683
-5.11881e-05
0.000285075
-4.95386e-05
0.000435853
-5.10187e-05
0.000631803
-5.39044e-05
0.000672145
-4.72723e-05
0.000559508
-3.59594e-05
0.000401146
-3.40845e-05
0.000258422
-3.476e-05
0.000304696
-3.53174e-05
0.000628507
-3.91447e-05
0.000855791
-2.85473e-05
0.000653447
-1.60185e-05
0.00039263
-1.21113e-05
0.000401459
-9.84749e-06
0.000657248
-7.33447e-06
0.000840227
-6.20344e-06
0.000807558
-1.68451e-06
0.000839991
4.61395e-07
0.000909427
-3.88447e-06
0.000965162
-3.21328e-06
0.000938147
-2.92672e-06
0.000889656
-2.52969e-06
0.000856039
6.45071e-06
0.000866658
7.53388e-06
0.000722762
8.21597e-06
0.000413363
1.40489e-05
0.000406336
2.26415e-05
0.00063325
2.35068e-05
0.000751354
2.06732e-05
0.000703098
2.09499e-05
0.000655695
1.67401e-05
0.000678235
1.9794e-05
0.000582085
1.74982e-05
0.000409274
9.19061e-06
0.000316249
1.89087e-05
0.000214888
4.07405e-05
0.000253236
5.03027e-05
0.000520663
4.954e-05
0.000519396
4.25192e-05
0.000315369
4.20979e-05
0.000174751
5.43246e-05
0.000171675
6.91048e-05
0.000298203
6.2947e-05
0.000426872
5.22267e-05
0.000479894
4.23871e-05
0.000480214
3.30054e-05
0.000415368
2.30448e-05
0.000246238
2.45857e-05
0.000116056
4.20447e-05
4.36796e-05
5.53274e-05
2.34634e-05
7.13509e-05
3.17971e-05
9.08761e-05
8.63951e-05
9.60075e-05
0.000218396
9.33189e-05
0.000298914
9.14092e-05
0.000321509
8.38824e-05
0.000323883
6.75676e-05
0.000275125
3.23371e-05
7.38623e-05
6.51057e-06
-6.18178e-05
-1.4857e-05
8.65812e-05
-3.05816e-05
0.000276394
-2.90477e-05
0.000233792
-2.09455e-05
0.000197536
-6.50062e-06
0.000163627
-1.33267e-06
0.000113614
-1.73946e-05
6.79369e-05
-1.89769e-05
5.06042e-05
-1.20807e-05
9.8398e-05
0.000135211
-9.61415e-06
-0.000557961
-2.6584e-05
-0.000321199
-9.47256e-05
2.48887e-05
-0.000185104
0.000238214
-0.000240713
0.000400886
-0.000199385
0.000332879
-0.000136008
0.000214755
-8.07553e-05
0.000197243
-1.31719e-05
0.000214035
1.52029e-05
0.000279588
6.67887e-06
0.000310403
-1.74495e-05
7.50972e-05
-6.32363e-05
0.000128194
-0.000100001
0.000301796
-0.000105168
0.000366717
-9.42342e-05
0.000328604
-8.94231e-05
0.000292017
-8.09887e-05
0.000210354
-6.72898e-05
9.64276e-05
-5.50575e-05
5.22617e-05
-4.12038e-05
5.07249e-05
-4.14788e-05
0.000100941
-5.79612e-05
0.000252459
-6.66867e-05
0.000414366
-6.60821e-05
0.000489198
-6.85278e-05
0.000507655
-7.73899e-05
0.000456177
-7.26184e-05
0.000296559
-5.87261e-05
0.000134919
-4.47093e-05
9.87893e-05
-3.24333e-05
0.000140558
-4.71941e-05
0.000300002
-6.59751e-05
0.000454829
-6.08761e-05
0.000626949
-4.54232e-05
0.000656983
-4.31742e-05
0.000557489
-4.36958e-05
0.000401877
-3.49486e-05
0.000249887
-3.51753e-05
0.000305146
-4.41904e-05
0.000637786
-3.82828e-05
0.000850208
-2.52087e-05
0.000640643
-1.47997e-05
0.000382493
1.03914e-05
0.00037655
8.72016e-06
0.000659227
2.80628e-06
0.000846472
1.41183e-05
0.000796588
5.41031e-06
0.00084906
-1.05543e-06
0.000916273
-3.31032e-06
0.000967815
-2.96827e-06
0.000938202
-1.04681e-05
0.000897533
-9.62326e-06
0.000855555
-2.2262e-05
0.000879642
-2.21838e-05
0.000723009
8.9545e-06
0.000382521
3.07279e-05
0.000384847
3.20176e-05
0.000632243
2.17251e-05
0.000761923
1.60172e-05
0.000709069
1.7248e-05
0.000654714
2.2967e-05
0.000672762
1.94773e-05
0.000585809
1.04328e-05
0.000418529
1.04135e-05
0.000316463
2.26952e-05
0.000202791
3.77751e-05
0.000238335
5.05415e-05
0.00050809
4.98365e-05
0.000520291
4.23545e-05
0.000323017
4.82333e-05
0.000169018
5.68268e-05
0.000163221
6.21286e-05
0.000293041
6.02737e-05
0.000428872
5.91796e-05
0.000481124
6.07618e-05
0.000478753
5.08368e-05
0.000425407
3.47715e-05
0.000262406
3.37335e-05
0.000117191
4.57678e-05
3.17382e-05
6.3916e-05
5.40334e-06
8.07199e-05
1.50769e-05
9.72107e-05
6.99871e-05
0.000101586
0.000214106
9.5201e-05
0.000305386
9.33673e-05
0.000323426
8.2673e-05
0.000334656
6.57321e-05
0.000292139
2.68621e-05
0.000112791
2.38851e-06
-3.72936e-05
-1.36177e-05
0.000102643
-2.53466e-05
0.000288187
-2.10252e-05
0.00022953
-3.87969e-06
0.000180443
1.72778e-05
0.000142518
5.88067e-06
0.000125058
-6.19223e-06
8.00518e-05
-7.81389e-06
5.22672e-05
-1.01185e-05
0.000100749
0.000125132
-8.80268e-06
-0.000549153
-1.67026e-05
-0.000313289
-6.70679e-05
7.52688e-05
-0.000150025
0.000321221
-0.000195555
0.000446511
-0.000153808
0.00029123
-9.85744e-05
0.00015959
-4.90111e-05
0.000147731
-1.10708e-05
0.000176141
5.85429e-06
0.000262719
-9.69059e-06
0.000326017
-3.87533e-05
0.000104221
-6.99085e-05
0.000159413
-9.48318e-05
0.000326797
-0.000110857
0.000382831
-0.000112355
0.000330193
-9.94308e-05
0.000279181
-8.22573e-05
0.000193269
-6.78909e-05
8.21487e-05
-6.34355e-05
4.78964e-05
-5.74743e-05
4.48567e-05
-6.26121e-05
0.000106176
-7.57197e-05
0.000265669
-7.66877e-05
0.000415449
-7.33166e-05
0.000485951
-7.44811e-05
0.000508957
-8.15466e-05
0.000463386
-6.99518e-05
0.000285103
-5.65067e-05
0.000121613
-4.93224e-05
9.17486e-05
-4.86866e-05
0.000140072
-5.9019e-05
0.000310501
-6.25699e-05
0.00045858
-6.59304e-05
0.000630562
-5.47667e-05
0.000646089
-4.43973e-05
0.000547341
-3.71341e-05
0.000394824
-3.84079e-05
0.000251372
-4.43809e-05
0.000311345
-4.55632e-05
0.000639228
-4.11447e-05
0.000846096
-2.58539e-05
0.000625623
-1.92275e-05
0.000376138
-2.08831e-05
0.00037849
-1.83018e-05
0.000656954
-1.60295e-05
0.000844529
-1.58946e-05
0.000796795
-8.04229e-06
0.000841566
-1.11145e-06
0.000909721
-3.25337e-06
0.000970354
7.29398e-07
0.000934616
3.7575e-06
0.000894882
4.70399e-06
0.000854967
1.3441e-05
0.00087125
1.49048e-05
0.00072187
9.76875e-06
0.000387955
1.04191e-05
0.000384481
2.28454e-05
0.0006201
2.69735e-05
0.000758071
2.04747e-05
0.00071583
2.45564e-05
0.000650881
3.06336e-05
0.000666926
3.36514e-05
0.00058302
2.79809e-05
0.000424409
1.83928e-05
0.000326248
2.29737e-05
0.000198394
3.85392e-05
0.000222948
5.10047e-05
0.000495822
5.37918e-05
0.000517697
4.83577e-05
0.000328617
4.75984e-05
0.000169924
5.225e-05
0.000158709
6.49632e-05
0.000280467
6.90126e-05
0.000424968
7.09243e-05
0.000479349
7.2428e-05
0.00047737
7.35362e-05
0.000424411
6.0512e-05
0.000275531
4.77876e-05
0.000130013
5.77393e-05
2.18802e-05
6.94226e-05
-6.19231e-06
7.82689e-05
6.31464e-06
9.30119e-05
5.53259e-05
9.90696e-05
0.000208133
9.34605e-05
0.00031108
8.84524e-05
0.000328517
8.09983e-05
0.000342191
7.0148e-05
0.000303065
3.30132e-05
0.000149987
3.08897e-07
-4.53991e-06
-7.38306e-06
0.000110395
-1.76846e-05
0.000298555
-1.13042e-05
0.000223211
9.10223e-06
0.000160087
1.24439e-05
0.000139224
1.429e-05
0.000123259
4.77582e-06
8.96088e-05
-9.28081e-06
6.63648e-05
-1.59653e-06
9.31103e-05
0.000123576
-7.94999e-06
-0.000541195
-1.41564e-05
-0.000307074
-6.06135e-05
0.000121744
-0.000136236
0.000396906
-0.000153014
0.000463395
-0.000103202
0.000241509
-5.93797e-05
0.000115827
-3.96395e-05
0.000128037
-3.45464e-05
0.000171097
-2.65052e-05
0.000254733
-2.07658e-05
0.000320349
-4.36611e-05
0.000127179
-7.9255e-05
0.000195071
-9.64277e-05
0.000344049
-0.000104261
0.000390754
-0.000104277
0.000330299
-9.65346e-05
0.000271526
-8.67282e-05
0.000183551
-7.33483e-05
6.88571e-05
-6.53479e-05
3.99857e-05
-6.42525e-05
4.38562e-05
-6.66387e-05
0.000108661
-7.92771e-05
0.000278411
-8.4183e-05
0.000420468
-7.82717e-05
0.000480162
-7.55013e-05
0.000506323
-7.3637e-05
0.000461664
-6.75174e-05
0.000279124
-5.88756e-05
0.000113111
-5.10729e-05
8.40894e-05
-4.88623e-05
0.000138015
-6.26156e-05
0.000324423
-7.65035e-05
0.000472663
-6.94991e-05
0.00062379
-4.7476e-05
0.000624307
-4.28369e-05
0.000542917
-4.42676e-05
0.000396468
-3.81265e-05
0.000245446
-4.13749e-05
0.00031482
-4.95986e-05
0.000647711
-3.89751e-05
0.000835765
-2.21651e-05
0.000609086
-1.71165e-05
0.000371365
-1.32762e-06
0.000362988
-3.47018e-06
0.00065941
-3.19226e-06
0.000844586
7.91483e-06
0.000786036
1.13501e-06
0.000848712
-6.18057e-07
0.000911859
-4.10558e-06
0.000974246
-3.14539e-06
0.000934058
-8.1182e-06
0.000900238
-3.25482e-06
0.000850469
-8.97989e-06
0.000877326
-1.0402e-05
0.000723622
1.03979e-05
0.000367455
2.28537e-05
0.000372313
2.61143e-05
0.000617126
2.41414e-05
0.000760324
1.50201e-05
0.000725217
1.8389e-05
0.000647765
3.69812e-05
0.000648578
3.67295e-05
0.000583503
2.26722e-05
0.00043868
1.79431e-05
0.000331176
2.61692e-05
0.000190354
3.81386e-05
0.000211159
5.15629e-05
0.000482598
5.3363e-05
0.000516091
4.74664e-05
0.000334681
5.25734e-05
0.000164963
6.17239e-05
0.000149699
6.8198e-05
0.000274135
7.15529e-05
0.000421758
7.60825e-05
0.000474954
7.94262e-05
0.000474148
7.59924e-05
0.000427955
5.93431e-05
0.000292284
5.24575e-05
0.000136998
6.00866e-05
1.43455e-05
6.95455e-05
-1.55624e-05
8.38546e-05
-7.91085e-06
8.97086e-05
4.95547e-05
8.38946e-05
0.000214033
8.36653e-05
0.000311394
8.7288e-05
0.000324978
8.62215e-05
0.000343341
6.66066e-05
0.000322758
2.73884e-05
0.000189268
2.77151e-06
2.01291e-05
4.31569e-06
0.000108912
-2.32545e-06
0.000305265
1.47568e-06
0.000219472
2.12316e-05
0.000140383
2.62086e-05
0.000134298
2.34872e-05
0.000126029
1.58863e-05
9.72548e-05
4.90397e-06
7.73894e-05
-8.47203e-07
9.89046e-05
0.000122772
-7.01225e-06
-0.000534176
-1.10984e-05
-0.000302977
-4.37434e-05
0.000154408
-0.000113113
0.00046635
-0.000109612
0.000460005
-7.20569e-05
0.000204032
-6.35894e-05
0.000107413
-5.59637e-05
0.000120462
-5.57313e-05
0.000170911
-5.66644e-05
0.000255726
-3.62383e-05
0.000299997
-5.12342e-05
0.000142238
-8.47657e-05
0.000228671
-9.95014e-05
0.000358867
-0.000102832
0.000394176
-9.67838e-05
0.000324341
-9.03504e-05
0.00026518
-8.45476e-05
0.000177837
-7.71498e-05
6.1547e-05
-7.03122e-05
3.32395e-05
-6.80597e-05
4.16985e-05
-8.2564e-05
0.000123269
-9.39661e-05
0.00028992
-9.19816e-05
0.000418596
-8.7091e-05
0.000475393
-8.20814e-05
0.00050145
-7.18386e-05
0.000451566
-6.50225e-05
0.000272452
-6.13212e-05
0.000109549
-5.43434e-05
7.72564e-05
-5.84782e-05
0.000142302
-7.452e-05
0.000340634
-7.67277e-05
0.000475061
-6.56368e-05
0.000612917
-5.13422e-05
0.000610234
-4.75356e-05
0.000539324
-4.18418e-05
0.000390988
-4.05033e-05
0.000244323
-4.47483e-05
0.000319295
-4.70919e-05
0.000650311
-4.40898e-05
0.000833046
-2.66663e-05
0.000591938
-2.10241e-05
0.000365998
-2.61317e-05
0.000368385
-2.28903e-05
0.000656483
-2.12489e-05
0.000843281
-2.23091e-05
0.000787444
-1.3619e-05
0.000840387
-3.37922e-06
0.000902006
-1.83428e-06
0.000973107
4.02848e-06
0.000928599
8.03547e-06
0.000896615
9.72174e-06
0.000849149
1.80423e-05
0.000869358
1.99061e-05
0.000722089
1.11775e-05
0.000376487
9.39142e-06
0.000374388
2.31609e-05
0.000603644
2.89831e-05
0.000754784
2.02736e-05
0.000734194
2.61398e-05
0.000642152
4.00757e-05
0.000634886
4.43486e-05
0.000579463
3.61372e-05
0.000447107
2.50524e-05
0.000342462
2.76202e-05
0.000187974
3.94281e-05
0.000199533
5.17611e-05
0.000470462
5.36394e-05
0.000514404
4.96996e-05
0.000338787
5.32999e-05
0.000161512
5.76215e-05
0.000145519
6.68843e-05
0.000265015
7.29381e-05
0.000415849
8.05816e-05
0.000467443
8.68527e-05
0.000467994
8.69109e-05
0.000428006
7.73433e-05
0.000301958
6.38616e-05
0.000150586
6.22347e-05
1.60685e-05
7.20774e-05
-2.53171e-05
8.69279e-05
-2.26759e-05
9.02698e-05
4.6295e-05
8.00971e-05
0.000224293
8.3624e-05
0.000307954
8.7588e-05
0.000321098
7.6643e-05
0.00035437
6.35572e-05
0.000335923
3.71049e-05
0.000215786
2.67706e-06
5.46085e-05
5.98892e-06
0.000105661
2.80017e-05
0.000283325
2.80103e-05
0.000219531
2.96216e-05
0.000138828
3.76668e-05
0.000126306
3.82082e-05
0.000125538
2.80474e-05
0.000107464
1.30116e-05
9.24697e-05
6.64057e-06
0.000105319
0.000129458
-5.66015e-06
-0.000528508
-1.16258e-05
-0.000297003
-4.52672e-05
0.000188071
-0.000100741
0.000521909
-8.8409e-05
0.00044778
-6.67176e-05
0.000182412
-6.38002e-05
0.000104549
-6.18664e-05
0.000118575
-6.84483e-05
0.000177543
-6.66287e-05
0.000253963
-5.08436e-05
0.000284286
-5.9139e-05
0.000150599
-7.92253e-05
0.000248827
-9.30373e-05
0.000372764
-0.000102866
0.000404096
-9.3116e-05
0.000314679
-8.305e-05
0.000255202
-8.29331e-05
0.000177809
-8.18736e-05
6.05755e-05
-7.91061e-05
3.05634e-05
-7.29708e-05
3.56602e-05
-8.1287e-05
0.000131691
-9.88634e-05
0.000307607
-9.86453e-05
0.000418492
-8.87838e-05
0.000465652
-7.85123e-05
0.000491312
-7.41762e-05
0.000447381
-7.15176e-05
0.000269939
-6.37895e-05
0.000101963
-5.51485e-05
6.87608e-05
-5.09444e-05
0.000138254
-6.33013e-05
0.000353161
-7.65276e-05
0.000488476
-6.8113e-05
0.000604711
-4.56498e-05
0.000587984
-3.98385e-05
0.000533727
-4.08032e-05
0.000392169
-4.08353e-05
0.000244574
-4.40509e-05
0.000322742
-4.81807e-05
0.0006547
-3.88435e-05
0.000823988
-2.27751e-05
0.000576147
-1.8974e-05
0.000362477
-1.09921e-05
0.000360694
-1.28755e-05
0.000658685
-6.98286e-06
0.000837729
3.01171e-06
0.000777803
-2.60724e-06
0.000846378
-1.28337e-06
0.000901073
-3.21492e-06
0.000975449
-2.17694e-06
0.000927971
-6.61323e-06
0.000901441
3.74775e-07
0.000842532
-3.20082e-09
0.000870092
-1.42719e-06
0.000723849
1.15578e-05
0.000363807
1.76595e-05
0.00036858
2.14363e-05
0.000600159
2.44967e-05
0.000752009
1.70632e-05
0.0007419
2.02478e-05
0.000639224
4.23109e-05
0.00061307
4.61462e-05
0.000575863
3.46299e-05
0.000458842
2.74093e-05
0.000349886
2.76627e-05
0.000187911
3.77722e-05
0.000189606
5.16507e-05
0.000456776
5.72664e-05
0.000508977
5.33375e-05
0.000342883
5.34327e-05
0.000161565
5.48247e-05
0.00014427
5.50952e-05
0.000264888
6.56752e-05
0.000405418
8.42174e-05
0.000449034
9.5848e-05
0.000456482
9.45323e-05
0.000429436
7.60604e-05
0.000320544
6.30526e-05
0.000163705
6.69135e-05
1.23036e-05
7.53802e-05
-3.36941e-05
8.09645e-05
-2.81751e-05
8.07647e-05
4.6578e-05
7.03043e-05
0.00023484
6.93772e-05
0.000308968
7.58663e-05
0.000314691
7.26674e-05
0.000357651
6.8126e-05
0.000340545
4.48088e-05
0.00023917
1.37992e-05
8.5674e-05
2.08527e-05
9.86653e-05
6.52255e-05
0.000239031
7.23755e-05
0.000212452
6.06881e-05
0.000150574
4.75479e-05
0.000139501
4.01012e-05
0.000133037
3.13336e-05
0.000116281
1.98423e-05
0.000104006
9.98384e-06
0.000115221