/*--------------------------------*- C++ -*----------------------------------*\
| =========                 |                                                 |
| \\      /  F ield         | OpenFOAM: The Open Source CFD Toolbox           |
|  \\    /   O peration     | Version:  2312                                  |
|   \\  /    A nd           | Website:  www.openfoam.com                      |
|    \\/     M anipulation  |                                                 |
\*---------------------------------------------------------------------------*/
FoamFile
{
    version     2.0;
    format      ascii;
    arch        "LSB;label=32;scalar=64";
    class       surfaceScalarField;
    location    "4";
    object      phi.water;
}
// * * * * * * * * * * * * * * * * * * * * * * * * * * * * * * * * * * * * * //

dimensions      [0 3 -1 0 0 0 0];

oriented        oriented;

internalField   nonuniform List<scalar> 
99400
(
0.000219269
-0.00021513
0.000411422
-0.000189641
0.000545924
-0.000121643
0.000666795
-0.000107111
0.000708264
-1.74674e-05
0.000636611
7.20952e-05
0.000485687
0.000120438
0.000317723
0.00014089
0.000173387
0.000131184
5.83762e-05
9.75313e-05
-2.12231e-05
6.27525e-05
4.57052e-07
-3.52742e-05
8.40077e-05
-9.41977e-05
0.000106589
-3.70442e-05
5.28388e-05
3.72587e-05
2.28149e-06
3.27906e-05
-2.50106e-05
9.97651e-06
-5.2286e-05
9.06589e-06
-6.46549e-05
-7.05312e-06
-3.39517e-05
-5.07039e-05
9.32082e-06
-6.37794e-05
4.04302e-05
-5.3027e-05
4.83595e-05
-3.13692e-05
6.38823e-06
1.74569e-05
-4.00621e-05
2.14605e-05
-6.62259e-05
5.06294e-08
-9.73776e-05
3.0839e-06
-0.000120591
-6.08015e-06
-8.83832e-05
-6.29618e-05
-2.36996e-05
-9.59151e-05
3.70279e-05
-9.377e-05
7.22375e-05
-7.0579e-05
5.37203e-05
-1.78415e-05
-6.08804e-07
1.61621e-05
-4.6165e-05
5.2631e-06
-8.09588e-05
-6.49485e-06
-8.44427e-05
-4.02555e-05
-7.46311e-06
-0.000123025
6.42637e-05
-0.000120295
3.08201e-05
-1.62504e-05
-3.38813e-05
1.25163e-05
-5.84326e-05
-2.99791e-05
-8.38018e-07
-0.000116133
8.00922e-05
-0.000142058
8.61777e-05
-6.68107e-05
6.36475e-05
-3.87209e-05
5.06343e-05
-5.15271e-05
3.40508e-05
-5.20414e-05
1.37326e-05
-5.08137e-05
-7.27022e-06
-5.31708e-05
-2.42263e-05
-5.75635e-05
-4.13496e-05
-5.47479e-05
-5.7173e-05
-5.19604e-05
-8.09983e-05
-4.00411e-05
-8.45274e-05
-5.96291e-05
4.77174e-07
-0.000149053
7.4231e-05
-0.000134938
5.55941e-05
-3.70756e-05
1.4159e-05
-1.0626e-05
-2.00939e-05
-1.58279e-05
-4.56193e-05
-2.20041e-05
-7.84309e-05
-1.37837e-05
-0.000108929
-1.49163e-05
-8.53979e-05
-6.75828e-05
-2.17625e-05
-0.000105666
3.81753e-05
-0.000100112
5.53123e-05
-5.49647e-05
1.28486e-05
5.55767e-06
-2.61458e-05
4.26657e-06
-7.17629e-06
-5.2783e-05
5.60775e-05
-9.4594e-05
9.20904e-05
-6.65987e-05
6.96245e-05
-6.83273e-06
3.9772e-05
2.15682e-06
1.45802e-05
-8.77142e-07
-2.83742e-05
1.76055e-05
-6.63112e-05
1.30874e-05
-5.97739e-05
-2.97845e-05
-3.75586e-05
-4.42004e-05
-1.14819e-05
-4.69874e-05
3.71163e-05
-6.79956e-05
7.63157e-05
-5.80007e-05
8.23917e-05
-2.47936e-05
5.77986e-05
7.09118e-06
3.50027e-05
6.88074e-06
5.85714e-06
1.33077e-05
-4.37848e-05
3.40912e-05
-6.38695e-05
5.15654e-06
-2.36218e-06
-7.38013e-05
9.66089e-05
-0.000107722
0.000142306
-5.83713e-05
0.00011374
1.66878e-05
7.51922e-05
2.53445e-05
4.8396e-05
1.46072e-05
2.52454e-05
1.25636e-05
8.53424e-06
6.60365e-06
2.97917e-06
-3.8182e-06
4.68366e-06
-1.09717e-05
9.09445e-06
-1.31065e-05
1.61982e-06
0.000176128
-0.000372726
0.000301327
-0.000298666
0.000427131
-0.000223858
0.000527846
-0.000181245
0.00057491
-3.4322e-05
0.000507301
0.000145019
0.000375437
0.000249296
0.000242191
0.000256446
0.000139887
0.000228188
3.61166e-05
0.000203229
-3.15598e-05
0.000141127
1.13429e-06
-5.6162e-05
6.23208e-05
-0.000139162
9.1083e-05
-5.2076e-05
6.00894e-05
7.86995e-05
-5.40305e-07
0.00010585
-6.09478e-05
8.85362e-05
-0.000100445
6.71059e-05
-8.46737e-05
-2.33321e-06
-3.96888e-05
-7.28523e-05
1.38835e-06
-8.12014e-05
3.68001e-05
-6.34681e-05
6.54824e-05
-3.49166e-05
4.74164e-05
5.97013e-05
-2.4972e-05
0.000122303
-9.49035e-05
9.85307e-05
-0.000133828
7.24671e-05
-0.00012844
1.92914e-05
-8.14309e-05
-7.53938e-05
-2.57905e-05
-0.000117299
2.2431e-05
-0.000105425
7.12046e-05
-7.99907e-05
8.80122e-05
4.80622e-06
1.44616e-05
0.000131193
-7.94975e-05
0.000141861
-0.000117289
7.74787e-05
-8.69267e-05
-1.85046e-05
-1.2649e-05
-0.000145126
6.43928e-05
-0.000142041
5.62723e-05
4.83607e-05
-4.54386e-05
0.000170695
-7.05632e-05
5.83548e-05
-5.63254e-06
-0.000113972
5.88952e-05
-0.000137189
8.29527e-05
-1.40638e-05
4.42411e-05
8.13994e-05
1.48993e-05
6.39507e-05
1.54143e-05
3.61912e-05
9.41113e-06
4.73094e-05
-7.2881e-06
5.90546e-05
-1.64901e-05
4.83075e-05
-1.76221e-05
4.02087e-05
-3.82231e-05
5.87986e-05
-7.37366e-05
8.10201e-05
-6.21389e-05
5.30175e-06
5.98623e-06
-0.000144205
7.24123e-05
-0.000131418
8.8682e-05
1.46962e-05
4.60035e-05
9.69347e-05
-6.83388e-06
9.59281e-05
-4.4075e-05
7.32065e-05
-8.8352e-05
8.39273e-05
-0.000105758
5.35587e-05
-6.75503e-05
-5.51635e-05
-1.4806e-05
-0.000111386
4.93669e-05
-0.000119085
7.99444e-05
-4.14096e-05
-6.72085e-07
0.000124498
-4.53618e-05
8.62861e-05
1.60175e-06
-6.31129e-05
5.14239e-05
-0.00010856
9.93992e-05
-7.97515e-05
0.000113188
1.00995e-05
7.18199e-05
7.40129e-05
-1.27103e-06
0.000101135
-6.51387e-05
0.000110716
-8.08757e-05
5.34425e-05
-5.69421e-05
-2.84966e-05
-2.91434e-05
-4.72197e-05
2.95836e-06
-5.52574e-05
4.57792e-05
-8.79712e-05
9.29122e-05
-8.33402e-05
0.00011921
-3.00622e-05
0.000103167
4.09814e-05
4.52049e-05
8.24013e-05
-2.11132e-05
9.34528e-05
-6.75142e-05
9.17237e-05
-6.12021e-05
1.22433e-05
5.35817e-06
-0.000124992
8.03063e-05
-0.000169195
0.000132274
-9.34011e-05
0.000125661
3.39439e-05
9.12606e-05
6.78138e-05
4.00687e-05
7.47835e-05
-1.02012e-05
7.26301e-05
-1.83148e-05
2.4596e-05
-2.27939e-08
-1.20846e-05
2.38924e-05
-2.47254e-05
5.25466e-05
-3.37118e-05
6.24719e-05
0.000125413
-0.000507077
0.000231051
-0.000405315
0.000318128
-0.000308313
0.000367805
-0.000219054
0.000364368
-2.15228e-05
0.000328208
0.000199593
0.000240757
0.000319046
0.000161715
0.000314833
7.10321e-05
0.000295026
-1.0423e-06
0.000260568
-1.9932e-05
0.000156496
8.99307e-06
-8.33704e-05
2.62904e-05
-0.000154523
1.22747e-05
-3.51218e-05
-1.37653e-05
0.000103399
-4.5958e-05
0.000135277
-7.02531e-05
0.000107043
-6.48081e-05
5.75441e-05
-4.55582e-05
-2.42483e-05
-2.78271e-05
-8.94477e-05
-8.03517e-06
-9.95707e-05
1.46821e-05
-8.52142e-05
1.48496e-05
-3.51237e-05
-1.13588e-06
6.86391e-05
-3.25257e-05
0.000142758
-7.60075e-05
0.000133219
-9.11819e-05
7.95049e-05
-8.5154e-05
9.55805e-06
-5.97323e-05
-0.000100996
-2.69633e-05
-0.000147388
8.83686e-06
-0.000139038
1.65271e-05
-8.71148e-05
1.24806e-05
2.19473e-06
-9.446e-06
0.000140755
-5.62561e-05
0.00017578
-6.50439e-05
7.30453e-05
-4.75915e-05
-4.44734e-05
-1.86188e-05
-0.000171386
1.65052e-06
-0.000160087
-5.55818e-06
4.10951e-05
-3.58651e-05
0.000183326
-4.34187e-05
5.09933e-05
-3.74682e-06
-0.000155526
2.52984e-05
-0.000167069
2.80523e-05
-3.09795e-05
2.1174e-05
5.85347e-05
2.27587e-05
3.85137e-05
1.70762e-05
1.88982e-05
5.3908e-06
2.6819e-05
-6.11644e-06
3.39704e-05
-1.46747e-05
2.48555e-05
-2.25178e-05
2.20897e-05
-2.3516e-05
3.44045e-05
-2.83553e-05
5.3275e-05
-3.05368e-05
-5.15976e-06
6.80344e-06
-0.000182985
3.71812e-05
-0.000163739
3.64904e-05
2.73753e-06
2.57921e-05
8.44994e-05
5.75217e-06
9.4978e-05
-7.23967e-06
6.59884e-05
-2.54655e-05
8.35605e-05
-3.64973e-05
5.02981e-05
-2.85862e-05
-6.61333e-05
-1.48218e-05
-0.00012306
1.35337e-05
-0.000145596
4.49854e-05
-7.95676e-05
3.23333e-05
0.00012791
1.51266e-05
9.30434e-05
2.06355e-05
-6.83253e-05
4.0043e-05
-0.000125731
5.81073e-05
-9.7475e-05
6.42063e-05
5.024e-07
5.37197e-05
7.64013e-05
1.13844e-05
0.000134845
-1.99693e-05
0.000129038
-3.61852e-05
6.2975e-05
-3.8121e-05
-2.70554e-05
-1.32309e-05
-7.22188e-05
1.87078e-05
-8.66397e-05
4.38599e-05
-0.000111483
6.21013e-05
-9.99765e-05
7.98319e-05
-4.914e-05
8.63163e-05
3.18397e-05
6.73434e-05
9.51003e-05
3.29835e-05
0.000121304
1.00631e-05
0.0001075
-2.27775e-06
2.22671e-05
1.67063e-05
-0.000142619
5.1857e-05
-0.000208731
6.51494e-05
-0.000104361
4.88104e-05
4.76608e-05
3.01331e-05
8.50985e-05
8.56311e-06
9.21591e-05
-5.1482e-06
8.21928e-05
-3.2643e-06
2.13748e-05
2.68427e-05
-4.28864e-05
3.99811e-05
-3.79084e-05
1.08636e-05
-3.411e-06
6.81829e-05
7.07002e-05
-0.000577872
0.000100164
-0.000435812
9.71761e-05
-0.000305358
6.80021e-05
-0.000196244
6.38825e-06
3.01317e-05
1.98697e-06
0.000260871
-2.83168e-06
0.000348742
7.03171e-06
0.000299728
-3.85482e-06
0.000300346
-1.52279e-05
0.00026794
-2.02454e-05
0.000161122
5.45325e-06
-0.000104467
1.3747e-05
-0.000163607
-9.90121e-06
-6.02342e-06
-4.09921e-05
0.000137516
-5.57028e-05
0.000147885
-6.65444e-05
0.00011782
-6.57257e-05
5.9661e-05
-5.67651e-05
-2.6789e-05
-3.61901e-05
-0.000110011
-9.96472e-06
-0.000125218
1.804e-05
-0.000112305
2.48914e-05
-3.84184e-05
-5.37746e-06
0.000105955
-3.81593e-05
0.000176265
-6.97886e-05
0.000167189
-9.4604e-05
0.00011184
-9.27244e-05
1.47903e-05
-6.5839e-05
-0.000123285
-3.01045e-05
-0.000181157
3.5813e-06
-0.000169453
3.11107e-05
-0.000110628
2.15065e-05
2.34103e-05
-2.2001e-05
0.000195029
-5.42983e-05
0.000216909
-7.60339e-05
0.000108001
-6.42855e-05
-4.18576e-05
-2.26721e-05
-0.000209124
2.07288e-05
-0.000199968
1.08234e-05
6.74801e-05
-4.08155e-05
0.000249839
-4.68438e-05
7.3948e-05
-1.03754e-05
-0.000181902
3.92543e-05
-0.000208216
5.00713e-05
-1.81506e-05
2.31733e-05
0.000117052
1.78262e-05
7.19144e-05
1.43944e-05
5.54836e-05
4.33536e-06
6.82113e-05
-6.21109e-06
8.00698e-05
-1.50053e-05
6.44502e-05
-1.81174e-05
6.12719e-05
-2.55266e-05
7.35272e-05
-5.28678e-05
0.000115386
-4.49442e-05
1.25286e-05
7.46052e-06
-0.000225405
5.52905e-05
-0.000200501
5.70962e-05
1.58919e-05
2.89071e-05
0.000133533
2.06756e-05
0.000122172
4.63991e-06
0.000101208
-2.61358e-05
0.000130873
-4.29721e-05
8.27476e-05
-3.07258e-05
-6.86456e-05
-4.80766e-06
-0.000146481
2.71212e-05
-0.000173824
5.07699e-05
-9.1484e-05
4.06282e-05
0.000146899
1.56368e-05
0.000128199
1.8518e-05
-6.49894e-05
4.70364e-05
-0.000153514
7.01992e-05
-0.000116804
6.93517e-05
8.83774e-06
4.70403e-05
0.000106884
2.34834e-05
0.000161484
-9.12382e-06
0.000171389
-4.19897e-05
0.000103532
-3.74034e-05
-2.75938e-05
-1.18812e-05
-9.47436e-05
1.89141e-05
-0.000116018
4.97801e-05
-0.000142047
7.6046e-05
-0.000126667
8.69352e-05
-5.69556e-05
8.2366e-05
3.98437e-05
6.65145e-05
0.000112806
5.23061e-05
0.000138079
2.78731e-05
0.000138258
-2.8412e-06
5.95179e-05
1.20173e-05
-0.000160042
4.44568e-05
-0.000241655
4.80875e-05
-0.000108651
1.73263e-05
8.64548e-05
8.08856e-08
0.000103657
-3.99053e-06
9.41811e-05
1.47607e-07
7.75901e-05
-2.34319e-06
2.48951e-05
2.43523e-06
-4.62232e-05
9.74884e-06
-4.42866e-05
1.03467e-06
6.736e-06
6.92892e-05
2.84897e-05
-0.000608613
1.83431e-05
-0.000426643
-5.39036e-05
-0.000236761
-0.000171637
-0.000103586
-0.000254453
9.25617e-05
-0.000198973
0.000238896
-0.000111937
0.000281877
-6.55822e-05
0.00025047
-3.45578e-05
0.000263913
-1.48346e-05
0.000245667
-1.50918e-05
0.000159399
1.79857e-06
-0.00012132
-2.66909e-05
-0.000140249
-6.72914e-05
3.17757e-05
-7.99969e-05
0.000146125
-8.42916e-05
0.000148706
-8.76756e-05
0.000115196
-7.50535e-05
4.24228e-05
-4.37281e-05
-6.49471e-05
-2.99889e-05
-0.000129298
-1.98095e-05
-0.000142612
-1.11718e-05
-0.00012737
-1.5361e-05
-4.03725e-05
-2.27548e-05
0.00010428
-4.46202e-05
0.00019407
-7.35106e-05
0.000186712
-8.67461e-05
0.000114831
-7.29444e-05
-9.07985e-06
-5.05188e-05
-0.00015544
-3.21161e-05
-0.000207366
-1.92154e-05
-0.000193382
-2.6726e-05
-0.000112523
-2.48757e-05
4.4296e-06
-3.30058e-05
0.000191119
-5.60956e-05
0.000227748
-5.39446e-05
8.94411e-05
-3.69123e-05
-7.72235e-05
-2.80071e-05
-0.000233364
-2.27302e-05
-0.000218713
-2.35204e-05
4.45551e-05
-3.83249e-05
0.000247022
-3.44957e-05
4.74042e-05
-1.1266e-05
-0.000224293
-8.09416e-07
-0.000238431
1.45474e-06
-5.19602e-05
3.67433e-06
7.83937e-05
5.37187e-06
3.30005e-05
5.85687e-06
1.13643e-05
2.3455e-06
2.37185e-05
-5.34257e-06
3.47075e-05
-7.95103e-06
1.82675e-05
-1.07002e-05
1.70469e-05
-1.01902e-05
3.13047e-05
-3.68937e-06
6.94732e-05
-4.07949e-06
-2.041e-05
6.84836e-06
-0.000256833
1.99699e-05
-0.000234769
2.4069e-05
-1.66685e-05
2.30771e-05
0.000108249
2.09841e-05
0.000101301
1.50055e-05
8.24447e-05
1.75242e-06
0.000124387
5.51913e-06
5.93748e-05
6.41829e-06
-8.47704e-05
-1.30413e-06
-0.000151107
1.50172e-05
-0.000203041
4.3842e-05
-0.00013425
4.80504e-05
0.000131956
4.25836e-05
0.000121859
3.56492e-05
-6.71002e-05
3.77975e-05
-0.00016485
5.1791e-05
-0.000140671
6.34625e-05
-1.38754e-05
5.46265e-05
0.000105896
3.28364e-05
0.000174688
9.83932e-06
0.000186299
-2.06075e-06
0.000107226
-5.57434e-06
-3.02125e-05
3.79726e-06
-0.000111378
3.07553e-05
-0.000148687
4.67724e-05
-0.000164675
5.98085e-05
-0.000144779
8.40531e-05
-8.77953e-05
9.49165e-05
2.41125e-05
8.66974e-05
0.000116896
7.12608e-05
0.000145889
6.4035e-05
0.000144662
5.01967e-05
7.1566e-05
2.59604e-05
-0.000138284
1.98824e-05
-0.000240512
1.25763e-06
-9.0151e-05
-1.83037e-05
0.000101854
-2.44557e-05
0.000106429
-2.63825e-05
9.33793e-05
-2.20793e-05
7.02392e-05
-6.5511e-06
6.48027e-06
-2.29596e-06
-5.31423e-05
2.94267e-06
-5.14829e-05
6.40108e-06
7.55652e-07
7.30428e-05
4.90515e-06
-0.000615386
-1.61198e-05
-0.000407654
-0.000102847
-0.000157867
-0.0002389
5.89584e-06
-0.00031342
0.000135393
-0.000251022
0.000200605
-0.000136961
0.000184332
-8.49913e-05
0.000192991
-3.88989e-05
0.000216319
-8.80777e-06
0.000214262
-5.59409e-06
0.000154665
-3.75978e-06
-0.000122769
-3.46063e-05
-0.000111216
-7.53883e-05
7.41135e-05
-9.33693e-05
0.000170617
-9.5356e-05
0.000159034
-8.28628e-05
0.000104565
-6.99199e-05
3.1884e-05
-5.79726e-05
-7.36629e-05
-4.29393e-05
-0.000143861
-2.48535e-05
-0.000158549
-8.77987e-06
-0.000141891
-1.91575e-05
-2.72994e-05
-4.23627e-05
0.000135695
-5.12189e-05
0.000208185
-6.38436e-05
0.000202293
-7.85373e-05
0.000133706
-7.55478e-05
-4.62992e-06
-5.88184e-05
-0.000168211
-3.77459e-05
-0.000226828
-1.63794e-05
-0.0002108
-1.53318e-05
-0.00011009
-3.52347e-05
4.04191e-05
-4.91434e-05
0.000209262
-4.64753e-05
0.000230751
-5.12048e-05
0.000103806
-4.93087e-05
-6.95483e-05
-2.9644e-05
-0.00024747
-1.53258e-05
-0.000228554
-2.5629e-05
7.18574e-05
-3.82367e-05
0.000269018
-3.18023e-05
5.57246e-05
-1.25026e-05
-0.000235304
2.43199e-05
-0.000266879
2.57444e-05
-3.98673e-05
1.07998e-05
0.000109948
1.82665e-05
4.11469e-05
9.47814e-06
4.69592e-05
-8.45551e-07
6.97845e-05
-4.05789e-06
7.24515e-05
-6.0998e-06
5.68676e-05
-1.41944e-05
5.35014e-05
-1.7183e-05
5.62142e-05
-3.74542e-05
0.000108812
-3.46373e-05
-6.95264e-06
7.5825e-06
-0.000289865
4.12238e-05
-0.000258573
4.06005e-05
4.51526e-06
2.0938e-05
0.000143078
1.84742e-05
0.00011887
1.34491e-05
0.000101955
5.61627e-06
0.000145096
8.13163e-07
7.70338e-05
-3.10439e-06
-7.36651e-05
3.16943e-06
-0.000153318
2.20801e-05
-0.000217341
4.09002e-05
-0.000146173
4.95929e-05
0.000127703
4.17749e-05
0.000136426
3.41927e-05
-5.53881e-05
4.59576e-05
-0.000174127
5.82762e-05
-0.000149097
5.79938e-05
-5.42287e-06
4.93864e-05
0.000118793
4.4196e-05
0.000182673
3.46955e-05
0.000194965
6.10821e-06
0.000140906
-6.14837e-06
-1.52664e-05
1.02041e-05
-0.000124921
3.45727e-05
-0.000172096
5.55844e-05
-0.000183955
7.45694e-05
-0.000163624
8.37458e-05
-9.43226e-05
7.97276e-05
3.14601e-05
8.28954e-05
0.000113321
8.28462e-05
0.000147641
7.85199e-05
0.000149642
5.61197e-05
9.64987e-05
2.49647e-05
-0.000107169
1.02859e-05
-0.000226487
-1.13287e-05
-6.85923e-05
-2.8975e-05
0.000118521
-2.63576e-05
0.00010568
-1.74406e-05
8.60158e-05
-9.12505e-06
6.28752e-05
-1.098e-05
9.31485e-06
-1.0707e-05
-5.29323e-05
-1.07217e-05
-5.08364e-05
-1.77247e-05
1.06546e-05
5.54486e-05
-6.99523e-06
-0.00060928
-3.84179e-05
-0.000379495
-0.000124787
-8.25762e-05
-0.000231695
8.03596e-05
-0.000285344
0.000173603
-0.000238485
0.000173034
-0.000144145
0.000107687
-8.60284e-05
0.000132442
-3.1134e-05
0.000158906
5.78777e-06
0.000177227
5.09903e-06
0.000153041
-1.99083e-05
-0.000100102
-6.26472e-05
-6.95679e-05
-9.22938e-05
0.000102102
-9.98566e-05
0.000177088
-0.000101366
0.000155287
-0.0001018
0.000103506
-8.56966e-05
1.40802e-05
-5.75931e-05
-0.000105466
-4.42793e-05
-0.000159593
-3.6574e-05
-0.000168869
-3.68516e-05
-0.000144552
-4.74015e-05
-1.93193e-05
-5.14983e-05
0.000137806
-5.91242e-05
0.000211131
-7.32586e-05
0.000213629
-8.27781e-05
0.000139477
-6.77488e-05
-2.52883e-05
-5.14001e-05
-0.000188921
-4.21077e-05
-0.000239607
-4.15349e-05
-0.000216372
-5.5567e-05
-0.000100273
-5.32734e-05
2.70122e-05
-5.28536e-05
0.000202247
-5.39739e-05
0.000227583
-4.59749e-05
8.889e-05
-3.46979e-05
-9.05821e-05
-3.49533e-05
-0.000253681
-3.74848e-05
-0.000231664
-3.73559e-05
5.78363e-05
-3.90463e-05
0.000265542
-2.76219e-05
3.32406e-05
-1.65237e-05
-0.000256559
-1.50777e-05
-0.000278879
-1.2952e-05
-6.15724e-05
-9.20434e-06
8.55195e-05
-8.05089e-06
1.80895e-05
-2.79025e-06
1.10397e-05
2.63472e-07
3.45545e-05
-3.72186e-06
4.78247e-05
-2.56326e-06
2.2068e-05
-1.79565e-06
2.0731e-05
-1.09808e-06
2.86092e-05
9.62654e-06
7.61102e-05
1.06587e-05
-3.13891e-05
8.3625e-06
-0.000299383
1.19849e-05
-0.000273652
2.11794e-05
-2.47003e-05
2.35299e-05
0.000128617
2.12283e-05
0.000109086
2.22647e-05
8.96215e-05
1.91162e-05
0.000138546
2.31801e-05
6.33115e-05
2.04329e-05
-8.01011e-05
1.04082e-05
-0.000149132
1.87009e-05
-0.000231074
4.02373e-05
-0.000174888
5.10643e-05
0.000113062
5.14897e-05
0.000131646
4.40317e-05
-5.32816e-05
4.20103e-05
-0.000176092
5.38291e-05
-0.0001652
6.94377e-05
-2.7309e-05
6.38922e-05
0.000119169
5.37219e-05
0.000190023
4.51543e-05
0.000203432
3.73221e-05
0.000143684
2.73909e-05
-9.18802e-06
2.78154e-05
-0.000128641
4.39513e-05
-0.000190095
5.62721e-05
-0.000198684
7.1637e-05
-0.000181184
9.13483e-05
-0.000117338
9.69685e-05
2.39067e-05
9.45548e-05
0.000113861
9.32396e-05
0.00014746
8.67112e-05
0.000156075
7.11537e-05
0.000110317
3.30647e-05
-7.10912e-05
3.62405e-06
-0.00019911
-1.83548e-05
-4.70578e-05
-3.2657e-05
0.000134371
-2.98604e-05
0.000103308
-2.13401e-05
7.69037e-05
-5.85831e-06
4.66677e-05
-8.05005e-07
2.78194e-06
-1.85509e-05
-3.65175e-05
-2.07398e-05
-5.01148e-05
-1.31134e-05
1.95641e-06
4.26741e-05
-9.73397e-06
-0.000600048
-2.98721e-05
-0.000363699
-0.00010696
-1.61591e-05
-0.000200815
0.000150599
-0.000231771
0.000215056
-0.000185721
0.000135247
-0.000131391
6.55958e-05
-7.80854e-05
7.70033e-05
-1.09529e-05
9.0179e-05
1.68473e-05
0.000147936
7.70111e-06
0.0001617
-1.91175e-05
-7.23924e-05
-6.67226e-05
-2.24676e-05
-0.000103404
0.000137005
-0.000107419
0.000180316
-9.56692e-05
0.000140068
-9.00242e-05
9.92645e-05
-8.16867e-05
6.94941e-06
-6.87357e-05
-0.000116688
-5.7171e-05
-0.000168589
-4.3506e-05
-0.000181989
-4.46808e-05
-0.000140193
-6.1427e-05
-4.06514e-07
-6.92419e-05
0.000143778
-6.73232e-05
0.000209975
-6.84105e-05
0.000215578
-7.66191e-05
0.000150115
-7.19514e-05
-2.51323e-05
-5.87376e-05
-0.000200285
-4.55361e-05
-0.000252698
-3.38421e-05
-0.000226763
-4.97044e-05
-8.23009e-05
-6.93586e-05
5.50483e-05
-6.26712e-05
0.000198976
-4.47202e-05
0.000212959
-4.20049e-05
9.13593e-05
-4.33979e-05
-8.23941e-05
-3.5524e-05
-0.000259014
-3.69756e-05
-0.000227785
-4.60356e-05
7.86352e-05
-3.80951e-05
0.000260856
-2.42286e-05
2.74675e-05
-1.50158e-05
-0.000260982
1.04088e-05
-0.000298521
8.49286e-06
-4.10193e-05
2.57072e-06
0.000106345
1.47649e-05
2.56778e-05
5.37431e-06
4.4062e-05
-1.31342e-06
6.67123e-05
-3.13477e-06
7.80924e-05
-2.52037e-06
4.75184e-05
-1.038e-05
5.3162e-05
-9.33965e-06
4.88023e-05
-2.29164e-05
0.000105594
-2.27336e-05
-1.09066e-05
9.11284e-06
-0.000324588
3.07427e-05
-0.000289465
3.20296e-05
-7.97358e-06
2.15892e-05
0.000148406
1.59074e-05
0.000122875
1.77123e-05
9.74104e-05
2.48852e-05
0.000137971
2.15528e-05
7.42749e-05
1.17053e-05
-6.52515e-05
1.13208e-05
-0.000146005
2.28122e-05
-0.000240484
3.72266e-05
-0.000185444
5.09288e-05
0.00010145
5.09873e-05
0.000134501
4.3261e-05
-4.25852e-05
4.86381e-05
-0.000179962
5.65148e-05
-0.000171093
6.17286e-05
-2.665e-05
6.06517e-05
0.000121729
6.05026e-05
0.0001908
6.36924e-05
0.000200879
5.50061e-05
0.000156304
3.8752e-05
1.14717e-05
3.63258e-05
-0.000124772
4.72023e-05
-0.000199344
6.51848e-05
-0.000216457
8.1462e-05
-0.000195163
9.77984e-05
-0.000132673
0.000102489
2.00844e-05
9.61824e-05
0.000124183
9.43817e-05
0.000149988
8.43741e-05
0.000167313
6.78083e-05
0.000127367
2.71012e-05
-3.15884e-05
3.31635e-07
-0.000173731
-1.57912e-05
-3.10035e-05
-2.62636e-05
0.0001428
-2.09013e-05
9.84485e-05
-2.15635e-06
5.90271e-05
1.97621e-05
2.57415e-05
7.3351e-06
1.59302e-05
-5.75429e-06
-2.34057e-05
-7.94056e-06
-4.75685e-05
-1.04452e-05
5.0687e-06
3.41153e-05
-8.51966e-06
-0.000591396
-1.84077e-05
-0.000355909
-7.39432e-05
3.26954e-05
-0.000154718
0.000215187
-0.000178523
0.000256367
-0.000139417
0.000104935
-9.15075e-05
2.68325e-05
-4.49582e-05
2.87844e-05
-9.87361e-06
5.48874e-05
6.10721e-06
0.000131904
-1.03537e-05
0.000178574
-4.18915e-05
-4.23453e-05
-7.32933e-05
8.26385e-06
-9.70296e-05
0.00016023
-0.000112692
0.000200636
-0.000114189
0.000146326
-0.000100418
8.51087e-05
-8.28045e-05
-1.20504e-05
-6.88255e-05
-0.000132128
-6.53602e-05
-0.000173036
-6.05422e-05
-0.000187472
-6.63318e-05
-0.000135941
-7.9375e-05
1.14881e-05
-7.90287e-05
0.000142847
-7.45332e-05
0.000205216
-7.49831e-05
0.000215937
-8.12061e-05
0.000154875
-6.93456e-05
-3.9958e-05
-5.62798e-05
-0.000214797
-5.0332e-05
-0.000259633
-5.10569e-05
-0.000227574
-6.13173e-05
-7.40315e-05
-6.42401e-05
5.1405e-05
-6.70391e-05
0.000204013
-5.49647e-05
0.000199756
-4.36744e-05
7.71058e-05
-3.64767e-05
-9.58782e-05
-3.89884e-05
-0.000259804
-4.60407e-05
-0.000223915
-4.67836e-05
7.13196e-05
-4.11366e-05
0.000253334
-2.53268e-05
5.00239e-06
-1.96763e-05
-0.000270903
-2.33153e-05
-0.000299531
-2.0645e-05
-5.87556e-05
-1.76626e-05
9.43077e-05
-1.7927e-05
9.91987e-06
-9.16153e-06
1.55076e-05
-1.26094e-06
3.87872e-05
-3.12546e-06
5.6427e-05
1.30613e-06
2.21337e-05
4.95799e-06
2.78521e-05
6.01525e-06
2.88843e-05
1.60182e-05
8.32517e-05
1.75112e-05
-2.97156e-05
9.93272e-06
-0.00032242
8.87423e-06
-0.000293618
2.19703e-05
-3.56985e-05
2.73002e-05
0.00013634
2.07574e-05
0.000124351
2.53637e-05
8.58127e-05
3.23791e-05
0.000127885
3.60021e-05
6.58764e-05
3.0165e-05
-6.41942e-05
1.95997e-05
-0.000138173
2.31178e-05
-0.000246737
3.81995e-05
-0.000203971
5.1211e-05
8.70931e-05
5.47674e-05
0.000129382
4.93383e-05
-3.96283e-05
4.77935e-05
-0.000180753
5.17962e-05
-0.000176945
6.4787e-05
-4.29931e-05
7.00339e-05
0.000115612
7.29858e-05
0.000188121
7.53896e-05
0.000199924
7.78031e-05
0.00015335
6.4481e-05
2.3319e-05
5.04281e-05
-0.000110473
5.97166e-05
-0.000211054
7.04139e-05
-0.00022741
7.85564e-05
-0.000204067
9.29957e-05
-0.000147258
9.91613e-05
1.20866e-05
9.35981e-05
0.000128425
8.86807e-05
0.000156345
8.19883e-05
0.000174594
7.17807e-05
0.000137858
3.33546e-05
5.28589e-06
-8.10221e-07
-0.00014132
-8.26161e-06
-2.53598e-05
-1.75008e-05
0.000151289
-1.01501e-05
9.11639e-05
1.07542e-05
3.71091e-05
1.36268e-05
2.39286e-05
1.57967e-05
1.30153e-05
6.2663e-06
-1.4064e-05
-9.13443e-06
-3.2615e-05
-1.13281e-06
-3.7349e-06
3.19174e-05
-7.7653e-06
-0.000583832
-1.51915e-05
-0.000350048
-6.50655e-05
7.70908e-05
-0.000136291
0.000275625
-0.000135973
0.00027126
-8.83887e-05
7.00334e-05
-5.35489e-05
-5.34448e-06
-3.71299e-05
1.09485e-05
-3.54695e-05
5.12173e-05
-2.85404e-05
0.000125526
-2.18885e-05
0.000168905
-4.62685e-05
-2.01688e-05
-8.21451e-05
4.35043e-05
-9.77049e-05
0.000177003
-0.0001047
0.00020664
-0.000104612
0.000145029
-9.68681e-05
7.73683e-05
-8.73234e-05
-2.10729e-05
-7.43329e-05
-0.000145406
-6.66249e-05
-0.000182562
-6.6387e-05
-0.00018666
-6.93927e-05
-0.000133549
-8.17691e-05
2.46122e-05
-8.62291e-05
0.000148557
-7.93198e-05
0.000197649
-7.55711e-05
0.000214936
-7.2687e-05
0.000151725
-6.67434e-05
-4.24014e-05
-5.89251e-05
-0.000221911
-5.16103e-05
-0.000264888
-5.00744e-05
-0.000226804
-6.43794e-05
-5.84042e-05
-7.84266e-05
7.03594e-05
-7.03228e-05
0.00019337
-4.6918e-05
0.00017795
-4.22354e-05
7.53203e-05
-4.43208e-05
-8.96059e-05
-3.84049e-05
-0.000265242
-4.21672e-05
-0.000219512
-5.05323e-05
8.75095e-05
-3.87375e-05
0.00024326
-2.14214e-05
-6.41242e-06
-1.72165e-05
-0.000272919
-1.21301e-06
-0.000312058
-3.53718e-06
-4.2984e-05
-3.05737e-06
0.000102944
8.75659e-06
1.17687e-05
1.29572e-06
4.0609e-05
-6.55952e-07
5.922e-05
-4.09542e-06
7.76066e-05
-3.13133e-06
4.14003e-05
-8.39252e-06
5.28813e-05
-3.12228e-06
3.89105e-05
-9.44949e-06
0.000101054
-1.08932e-05
-1.23464e-05
1.05611e-05
-0.000339595
2.28277e-05
-0.000302273
2.59575e-05
-2.39699e-05
2.40823e-05
0.000142034
1.46921e-05
0.00013919
1.83288e-05
8.72509e-05
3.85009e-05
0.000111619
3.84053e-05
7.00556e-05
2.35802e-05
-4.65257e-05
1.86776e-05
-0.000131718
2.64741e-05
-0.00025444
3.78874e-05
-0.00021365
5.16529e-05
7.50945e-05
5.38484e-05
0.000128007
4.79763e-05
-3.208e-05
5.30306e-05
-0.000185676
6.20717e-05
-0.000185065
6.83469e-05
-4.66787e-05
7.20588e-05
0.000114269
7.7194e-05
0.000185385
8.13786e-05
0.000198641
7.85126e-05
0.00015669
6.1998e-05
4.06021e-05
5.48918e-05
-0.000101506
6.13639e-05
-0.000217065
7.00093e-05
-0.000235275
8.41436e-05
-0.000220093
8.90986e-05
-0.000151424
8.27458e-05
1.98389e-05
8.31646e-05
0.00012752
8.74594e-05
0.00015102
8.68067e-05
0.000172206
6.73483e-05
0.000160603
2.76219e-05
4.44258e-05
2.15139e-06
-0.000115827
4.62199e-06
-2.74931e-05
-8.80787e-07
0.000162206
3.50153e-06
8.75357e-05
2.34437e-05
1.87862e-05
2.83388e-05
1.84501e-05
2.58025e-05
1.6539e-05
1.81538e-05
-5.89319e-06
6.41465e-06
-2.13803e-05
-1.47984e-07
3.42925e-06
3.11789e-05
-6.97283e-06
-0.000576868
-1.17784e-05
-0.000345964
-4.59057e-05
0.000108872
-0.000109008
0.00033208
-9.61128e-05
0.000264217
-6.25665e-05
4.73867e-05
-6.04629e-05
-9.80411e-06
-5.54646e-05
3.39756e-06
-5.75631e-05
5.16068e-05
-5.97289e-05
0.000126553
-3.85262e-05
0.000144798
-5.32206e-05
-6.92038e-06
-8.68157e-05
7.50484e-05
-0.0001005
0.000187913
-0.000103073
0.000207107
-9.62529e-05
0.000136844
-8.95899e-05
7.12335e-05
-8.46717e-05
-2.67666e-05
-7.84355e-05
-0.00015159
-7.18455e-05
-0.00018919
-6.97269e-05
-0.000190714
-8.5312e-05
-0.000117779
-9.66766e-05
3.44134e-05
-9.35317e-05
0.000147418
-8.82625e-05
0.000192808
-8.23948e-05
0.000207947
-7.08712e-05
0.000139553
-6.43488e-05
-5.07072e-05
-6.14916e-05
-0.000225752
-5.48598e-05
-0.000274433
-5.99399e-05
-0.000225499
-7.63841e-05
-4.37755e-05
-7.79726e-05
6.87741e-05
-6.58678e-05
0.000179035
-5.1214e-05
0.000162618
-4.74341e-05
7.01482e-05
-4.16558e-05
-9.89814e-05
-4.08783e-05
-0.000266414
-4.54488e-05
-0.000215932
-4.74343e-05
8.48628e-05
-4.42398e-05
0.000238982
-2.66044e-05
-2.89981e-05
-2.13595e-05
-0.00027991
-2.79679e-05
-0.000308392
-2.45262e-05
-5.68717e-05
-2.25856e-05
9.50482e-05
-2.42513e-05
2.77435e-06
-1.47306e-05
1.62601e-05
-3.62462e-06
3.31307e-05
-1.61369e-06
6.31263e-05
4.63451e-06
1.80177e-05
9.19369e-06
3.22984e-05
1.08241e-05
2.58549e-05
2.00202e-05
8.39612e-05
2.199e-05
-2.70156e-05
1.13358e-05
-0.000332657
8.37911e-06
-0.000301838
2.26971e-05
-4.85244e-05
2.9318e-05
0.000132444
2.04959e-05
0.000143591
2.66847e-05
7.84753e-05
4.11918e-05
9.52753e-05
4.59173e-05
6.30884e-05
3.7778e-05
-4.09688e-05
2.62055e-05
-0.000121433
2.79697e-05
-0.000256503
3.93088e-05
-0.000226542
5.17728e-05
6.19454e-05
5.39384e-05
0.000124993
5.0207e-05
-2.9348e-05
5.35607e-05
-0.000189086
5.74728e-05
-0.000189886
6.66258e-05
-5.75272e-05
7.31913e-05
0.000107598
8.14702e-05
0.000174867
8.82967e-05
0.000187903
8.92866e-05
0.000159581
7.99126e-05
4.83741e-05
6.55532e-05
-8.98504e-05
6.30236e-05
-0.000213745
7.25487e-05
-0.000246866
8.71477e-05
-0.000234446
8.98404e-05
-0.000155221
7.90781e-05
3.07008e-05
8.30515e-05
0.000123478
8.7547e-05
0.00014626
7.66154e-05
0.000183183
6.38703e-05
0.000171766
3.81595e-05
6.87026e-05
2.79657e-06
-8.14759e-05
6.11455e-06
-3.15465e-05
3.1005e-05
0.000137027
3.20201e-05
8.53634e-05
3.26711e-05
1.89932e-05
3.99465e-05
1.01075e-05
4.04878e-05
1.54352e-05
3.02909e-05
3.41483e-06
1.47908e-05
-5.99843e-06
7.58671e-06
1.03374e-05
3.90771e-05
-5.77295e-06
-0.000571409
-1.22481e-05
-0.000339972
-4.71568e-05
0.000140486
-9.56014e-05
0.000377042
-7.84966e-05
0.000252278
-6.15679e-05
3.61628e-05
-6.22052e-05
-1.20413e-05
-6.19619e-05
2.82006e-06
-7.02784e-05
5.94807e-05
-6.91643e-05
0.000125033
-5.32889e-05
0.000132243
-6.07383e-05
1.27464e-06
-7.99732e-05
9.53569e-05
-9.32838e-05
0.000199775
-0.000102966
0.000221279
-9.2581e-05
0.000131126
-8.22427e-05
6.21755e-05
-8.26308e-05
-2.42823e-05
-8.25254e-05
-0.00015044
-8.0421e-05
-0.000189978
-7.46101e-05
-0.000196401
-8.28084e-05
-0.000108509
-0.000100555
5.55827e-05
-0.000100146
0.000146798
-8.9542e-05
0.000186012
-7.85476e-05
0.000196562
-7.37697e-05
0.000138182
-7.14249e-05
-5.14516e-05
-6.38991e-05
-0.000232905
-5.56293e-05
-0.000282133
-5.14103e-05
-0.000228986
-6.34748e-05
-3.0683e-05
-7.70215e-05
8.47285e-05
-6.81369e-05
0.000175517
-4.50164e-05
0.000139025
-3.90882e-05
6.61354e-05
-4.05211e-05
-9.488e-05
-4.09474e-05
-0.00026333
-4.43096e-05
-0.000208887
-4.83484e-05
9.29198e-05
-3.84471e-05
0.000227029
-2.23011e-05
-4.0576e-05
-1.89999e-05
-0.000282133
-1.08782e-05
-0.000314214
-1.29213e-05
-4.54171e-05
-6.5564e-06
9.37975e-05
4.04678e-06
1.49037e-06
-2.2763e-06
3.5008e-05
-1.23098e-06
4.50069e-05
-3.2049e-06
7.8983e-05
-2.34559e-06
3.19903e-05
-7.16241e-06
5.03797e-05
2.59103e-07
3.0571e-05
-4.53659e-07
9.11107e-05
-1.90666e-06
-1.25013e-05
1.16967e-05
-0.000343401
1.76226e-05
-0.000306127
2.10861e-05
-4.26762e-05
2.42909e-05
0.000132012
1.69034e-05
0.000154795
2.00553e-05
7.81478e-05
4.3096e-05
7.36999e-05
4.71956e-05
6.11165e-05
3.54738e-05
-2.74461e-05
2.81463e-05
-0.00011326
2.7818e-05
-0.000253926
3.75539e-05
-0.000235559
5.15806e-05
4.64136e-05
5.76762e-05
0.00011991
5.37955e-05
-2.45434e-05
5.35849e-05
-0.000186745
5.43706e-05
-0.000191233
5.39514e-05
-5.58002e-05
6.53318e-05
9.69902e-05
8.49801e-05
0.000155901
9.72981e-05
0.000175957
9.63292e-05
0.000161482
7.74038e-05
6.68337e-05
6.40993e-05
-7.72837e-05
6.77398e-05