/*--------------------------------*- C++ -*----------------------------------*\
| =========                 |                                                 |
| \\      /  F ield         | OpenFOAM: The Open Source CFD Toolbox           |
|  \\    /   O peration     | Version:  2312                                  |
|   \\  /    A nd           | Website:  www.openfoam.com                      |
|    \\/     M anipulation  |                                                 |
\*---------------------------------------------------------------------------*/
FoamFile
{
    version     2.0;
    format      ascii;
    arch        "LSB;label=32;scalar=64";
    class       surfaceScalarField;
    location    "4";
    object      phi.air;
}
// * * * * * * * * * * * * * * * * * * * * * * * * * * * * * * * * * * * * * //

dimensions      [0 3 -1 0 0 0 0];

oriented        oriented;

internalField   nonuniform List<scalar> 
99400
(
0.000233136
0.000502433
0.000453363
0.000537734
0.000528926
0.000583529
0.000548663
0.000604131
0.000406186
0.000650016
0.000188438
0.000696855
6.68076e-05
0.00074098
5.37787e-05
0.000812189
4.18088e-05
0.00084196
4.39646e-05
0.000868981
3.02098e-05
0.000904919
2.58652e-05
0.000886756
5.34505e-05
0.000890989
4.43522e-05
0.000965674
7.52242e-06
0.00105734
-3.76307e-06
0.00111334
-6.87519e-06
0.00114504
-1.61364e-05
0.00119066
-2.39371e-05
0.00122739
-8.09961e-06
0.00127602
9.87066e-06
0.00132686
2.03556e-05
0.00139746
1.94316e-05
0.00147619
-4.69449e-06
0.00158387
-2.13514e-05
0.00167892
-2.72371e-05
0.00173462
-4.30732e-05
0.0018027
-5.90654e-05
0.00186525
-4.00404e-05
0.00194273
-9.03206e-06
0.00202202
2.06477e-05
0.00212133
3.86124e-05
0.00223854
2.29558e-05
0.00232588
-4.686e-06
0.00252631
-1.94996e-05
0.00264033
-4.00854e-05
0.00273218
-4.26667e-05
0.00281715
-2.35745e-06
0.00295109
3.40614e-05
0.00310254
1.39195e-05
0.00325159
-1.81921e-05
0.00350161
-3.01974e-05
0.00357243
1.95955e-07
0.00374666
4.56528e-05
0.0039117
4.86799e-05
0.00398324
3.56196e-05
0.00426922
2.96064e-05
0.00436198
1.98626e-05
0.00447614
7.79648e-06
0.00465894
-4.3875e-06
0.00495319
-1.44533e-05
0.00486787
-2.43176e-05
0.00469419
-3.25279e-05
0.00451965
-4.65626e-05
0.00444085
-4.83076e-05
0.00410295
-8.03236e-07
0.00409927
4.10339e-05
0.00391644
2.97273e-05
0.00365427
5.85052e-06
0.00359707
-1.07721e-05
0.00344287
-2.29793e-05
0.00326175
-3.85095e-05
0.00313922
-5.68523e-05
0.00297713
-4.47459e-05
0.00280843
-1.21434e-05
0.00268156
1.76382e-05
0.00256973
2.43409e-05
0.00245577
7.80048e-06
0.00240115
-9.56021e-06
0.00228648
-5.99143e-06
0.00214436
2.55084e-05
0.00202053
4.51092e-05
0.00194421
3.04552e-05
0.00186053
1.52376e-05
0.00180215
1.06558e-05
0.00173309
-4.76195e-06
0.00165798
-2.77892e-05
0.00157733
-2.85727e-05
0.0014721
-2.05696e-05
0.00139957
-1.06196e-05
0.00133414
1.09665e-05
0.00126237
2.9678e-05
0.00121073
3.60619e-05
0.00116742
2.38327e-05
0.00113224
1.94245e-05
0.00109025
1.92663e-05
0.00104523
-3.28066e-06
0.00101466
-3.29978e-05
0.000940918
-3.92382e-06
0.000867993
4.87516e-05
0.000807175
6.0705e-05
0.000794792
2.68188e-05
0.000786178
1.27546e-05
0.000765091
1.5992e-05
0.000721835
1.42818e-05
0.000686562
8.7145e-06
0.000646007
3.50186e-06
0.00061537
-2.41965e-06
0.000582537
-7.48316e-06
0.000555281
0.000537738
0.000264784
0.000517621
0.000480757
0.000592201
0.000625949
0.000662209
0.000691027
0.000726949
0.000611608
0.000866083
0.000331522
0.000962696
8.30248e-05
0.000975606
3.77617e-05
0.00103015
7.25222e-05
0.00108232
7.40812e-05
0.00110181
1.57354e-05
0.00108675
1.97646e-05
0.00101561
7.77686e-05
0.00101934
8.32605e-05
0.00112329
3.82227e-05
0.00124768
1.5263e-05
0.00129788
-1.45366e-05
0.00132131
-4.98132e-05
0.00137637
-5.07727e-05
0.00140753
-2.27498e-05
0.00145925
9.47445e-06
0.00152781
3.27519e-05
0.00160869
4.27995e-05
0.00170191
1.62361e-05
0.00181235
-2.2562e-05
0.00189446
-5.07049e-05
0.00198739
-7.92129e-05
0.0020669
-9.06978e-05
0.00214858
-6.21231e-05
0.00223014
-1.66966e-05
0.00233199
2.40236e-05
0.00244682
5.31584e-05
0.00257792
4.87718e-05
0.00267107
1.3521e-06
0.00288466
-4.30522e-05
0.00303607
-7.02568e-05
0.00311014
-6.29065e-05
0.00320498
-6.63542e-06
0.00340312
4.72017e-05
0.00357149
2.96485e-05
0.00370005
-2.98004e-05
0.00399507
-4.68617e-05
0.00407413
-2.99519e-06
0.00429799
5.15932e-05
0.00450529
6.06337e-05
0.00453217
3.80249e-05
0.00478254
2.58556e-05
0.00493945
1.9485e-05
0.0051175
8.51431e-06
0.00530778
-5.71871e-06
0.00560592
-1.56729e-05
0.00555835
-2.28486e-05
0.00535794
-3.43222e-05
0.00513624
-5.66016e-05
0.00496375
-5.44443e-05
0.00473231
2.14516e-06
0.00471679
5.31006e-05
0.00450272
5.03084e-05
0.0041637
1.92641e-05
0.00404715
-9.71329e-06
0.00388943
-2.97464e-05
0.00367983
-5.64426e-05
0.00356151
-7.7403e-05
0.00338799
-5.71862e-05
0.00322096
-1.34844e-05
0.00310348
3.3127e-05
0.00295752
4.86583e-05
0.00279562
5.02052e-06
0.00276464
-2.66798e-05
0.00261256
-5.33813e-06
0.00246469
3.90009e-05
0.0023326
6.92554e-05
0.00223153
6.33881e-05
0.00214194
3.42637e-05
0.00206262
6.04993e-06
0.00198633
-2.64747e-05
0.00189857
-5.20717e-05
0.00180839
-4.41001e-05
0.00169764
-2.77859e-05
0.00161009
-7.54476e-06
0.00153318
2.83661e-05
0.00145139
6.25413e-05
0.00138739
7.41936e-05
0.00133336
4.88289e-05
0.00130723
1.45272e-05
0.00125329
-3.13093e-06
0.00121736
-3.59641e-05
0.00117536
-5.88587e-05
0.00109635
-6.01788e-06
0.000977558
8.06611e-05
0.000905739
0.000113492
0.000902437
7.80522e-05
0.000921946
5.22243e-05
0.000894617
3.36783e-05
0.000842133
8.21048e-06
0.000800982
-1.75074e-06
0.000746689
-1.51335e-06
0.000697701
8.63201e-06
0.000661853
3.12302e-05
0.000633703
0.000626577
0.000252789
0.000411837
0.000444746
0.000513656
0.000599416
0.000585983
0.000665721
0.000675061
0.000553702
0.000843708
0.000285436
0.0010366
7.49027e-05
0.00116361
6.1916e-05
0.00122713
6.04243e-05
0.00125626
3.98415e-05
0.0012898
7.98341e-06
0.00125435
2.47289e-05
0.00110661
6.3237e-05
0.00109889
5.61314e-05
0.0012375
1.27531e-05
0.00140785
-2.28338e-05
0.00149739
-4.25339e-05
0.00154249
-5.36018e-05
0.00157302
-4.60978e-05
0.00158886
-2.28006e-05
0.00162194
3.63681e-06
0.00169391
2.69872e-05
0.00179278
2.96259e-05
0.00191376
5.53014e-06
0.00208348
-2.90584e-05
0.00223421
-6.24509e-05
0.00233167
-8.23028e-05
0.00239309
-8.91183e-05
0.00243961
-6.15096e-05
0.00249905
-2.0897e-05
0.00258531
1.87141e-05
0.00272118
3.82077e-05
0.00289418
3.09318e-05
0.00305245
-4.57943e-06
0.00334674
-4.8162e-05
0.00353625
-6.79633e-05
0.00359889
-5.59093e-05
0.00367127
-1.13302e-05
0.00379559
2.73564e-05
0.00399394
1.32421e-05
0.00426936
-3.23911e-05
0.00463697
-4.51364e-05
0.00471093
-3.19049e-06
0.00483844
4.00364e-05
0.00507059
4.60376e-05
0.00525165
3.09238e-05
0.00561846
2.49159e-05
0.00579407
1.84481e-05
0.00600066
6.98909e-06
0.00626957
-5.95231e-06
0.00661941
-1.5446e-05
0.00656074
-2.31021e-05
0.00629464
-2.99312e-05
0.0060351
-4.38398e-05
0.00584575
-4.42891e-05
0.00548153
4.0182e-06
0.00530827
4.64262e-05
0.00507229
4.34647e-05
0.00480725
2.15871e-05
0.00472569
-3.07572e-06
0.00453808
-1.97786e-05
0.00429687
-4.25248e-05
0.00414067
-6.00129e-05
0.00391699
-4.57461e-05
0.00365548
-1.48638e-05
0.00347377
2.38542e-05
0.00329913
4.69676e-05
0.00318149
1.70569e-05
0.00318924
-7.51934e-06
0.0030189
5.06587e-06
0.00276349
3.92592e-05
0.00259975
6.49083e-05
0.00249963
6.15647e-05
0.00242907
4.39031e-05
0.00238666
1.14034e-05
0.00233155
-2.15363e-05
0.00224587
-4.396e-05
0.00207892
-4.31468e-05
0.00191584
-2.31997e-05
0.00180174
3.24991e-06
0.001707
3.40532e-05
0.00160421
6.10576e-05
0.00153643
7.69192e-05
0.00150016
6.76511e-05
0.00148372
4.75243e-05
0.00146482
2.06386e-05
0.00142613
-1.37781e-05
0.00135754
-3.15771e-05
0.0012329
7.1647e-06
0.00105242
6.95941e-05
0.000947442
9.07595e-05
0.000981024
5.66696e-05
0.00104539
3.11046e-05
0.0010192
1.61875e-05
0.000980685
8.01179e-07
0.000932563
-2.65432e-06
0.000845651
1.39197e-05
0.00076866
2.72686e-05
0.000733667
9.21004e-06
0.000712101
0.000740524
0.000213863
0.000252166
0.000360327
0.000384975
0.000496743
0.000455629
0.000556669
0.000519239
0.000369827
0.000651833
0.000125159
0.00102135
-2.94568e-05
0.00120548
-8.15456e-06
0.0012604
2.26572e-05
0.00131999
1.77636e-05
0.00132495
-4.4818e-06
0.00128477
2.17649e-05
0.00110636
5.17122e-05
0.0010774
3.7184e-05
0.00126026
-8.16059e-06
0.00144159
-3.44121e-05
0.00155002
-4.98993e-05
0.00156637
-5.61303e-05
0.00157927
-5.11223e-05
0.00156812
-2.74857e-05
0.00159903
1.22496e-06
0.00167197
2.67046e-05
0.00176558
3.01355e-05
0.00190488
-5.651e-07
0.00209069
-3.31835e-05
0.00229548
-6.41322e-05
0.00235732
-8.77404e-05
0.00239916
-9.2738e-05
0.00242878
-6.55631e-05
0.00246604
-2.40974e-05
0.00255616
1.55631e-05
0.00269283
3.80223e-05
0.00286775
2.71858e-05
0.00303266
-1.1849e-05
0.00336519
-5.03857e-05
0.00355527
-7.16641e-05
0.00358818
-6.12676e-05
0.00363032
-1.5122e-05
0.00375578
2.67228e-05
0.00395078
1.20039e-05
0.00424228
-3.64041e-05
0.00465749
-4.72361e-05
0.00468639
-5.88806e-06
0.00478562
4.1373e-05
0.00500956
4.84006e-05
0.00523141
2.82716e-05
0.00557553
2.31855e-05
0.00577508
1.78738e-05
0.00596554
6.34716e-06
0.00621447
-6.40011e-06
0.00655719
-1.58097e-05
0.0065099
-2.20647e-05
0.00625024
-2.87018e-05
0.00600775
-4.80291e-05
0.00580435
-4.60195e-05
0.0054755
5.35174e-06
0.00524127
5.07474e-05
0.00501151
4.88408e-05
0.00479201
2.39601e-05
0.00469694
4.9001e-06
0.00451089
-1.1441e-05
0.00426495
-3.71631e-05
0.0041204
-5.61737e-05
0.00389314
-4.27413e-05
0.00363345
-1.18072e-05
0.00344704
2.66836e-05
0.00326698
4.87046e-05
0.00313233
2.5965e-05
0.00320133
-7.7823e-07
0.00302053
8.89797e-06
0.00275342
4.33435e-05
0.002571
6.8553e-05
0.00247014
6.50426e-05
0.00241632
4.45694e-05
0.00239248
1.65503e-05
0.0023559
-1.57557e-05
0.00224064
-4.50153e-05
0.00208522
-4.35166e-05
0.00190759
-2.14821e-05
0.00177555
7.04013e-06
0.0016778
4.04799e-05
0.0015792
6.94531e-05
0.00151112
8.12324e-05
0.00147953
7.34022e-05
0.00148681
5.12875e-05
0.00148548
3.15435e-05
0.00143956
8.08164e-06
0.00137902
-2.49184e-05
0.00124293
6.60804e-06
0.00103833
6.82896e-05
0.000916513
8.34464e-05
0.000968873
4.31993e-05
0.00104862
1.62481e-05
0.00104905
6.14596e-06
0.00100557
1.42574e-06
0.000949298
-2.73007e-06
0.00084877
1.11093e-05
0.000757394
2.02675e-05
0.000723364
6.91997e-06
0.000719351
0.000747522
0.000145398
0.000143385
0.000234854
0.000308431
0.000300458
0.000433901
0.000288425
0.000502384
8.40624e-05
0.000657201
-9.54855e-05
0.00104446
-0.000120965
0.00120685
-5.88442e-05
0.00125393
-1.66998e-05
0.00132115
-1.5197e-06
0.0013475
-1.34163e-05
0.00130538
1.26857e-05
0.00110307
2.37881e-05
0.00111516
1.36809e-06
0.00131738
-2.93741e-05
0.0015045
-4.91661e-05
0.00159305
-6.51549e-05
0.00162448
-6.49068e-05
0.00162972
-4.46619e-05
0.00161831
-2.59249e-05
0.00163315
-5.58044e-06
0.00170213
1.3277e-05
0.00180772
1.14051e-05
0.00196664
-8.4023e-06
0.00219424
-3.93026e-05
0.00236981
-6.88124e-05
0.00247443
-8.76758e-05
0.00252043
-8.50128e-05
0.00252584
-5.96096e-05
0.00252853
-2.70868e-05
0.00260517
2.36414e-06
0.00275132
1.11572e-05
0.00295673
6.83959e-06
0.00319837
-2.06317e-05
0.00352665
-5.37018e-05
0.00372192
-6.54421e-05
0.00376853
-5.07951e-05
0.00380325
-2.0089e-05
0.00385028
5.94013e-06
0.00405819
-2.25164e-06
0.00447803
-3.79643e-05
0.00487914
-4.20657e-05
0.00492713
-8.07524e-06
0.00493916
2.36015e-05
0.00517651
2.87699e-05
0.00553718
1.82653e-05
0.00594337
1.56797e-05
0.0061479
1.27288e-05
0.00638593
4.62895e-06
0.00668114
-6.05391e-06
0.00704402
-1.26505e-05
0.00699037
-1.74061e-05
0.00670234
-2.12243e-05
0.00642003
-2.93242e-05
0.00620046
-2.8346e-05
0.00580737
5.94469e-06
0.00541951
3.78246e-05
0.00517988
3.86775e-05
0.00506582
2.38227e-05
0.00497473
1.11179e-05
0.00475546
-6.07104e-07
0.0045192
-2.13602e-05
0.00435405
-3.14349e-05
0.00409774
-2.35533e-05
0.00378207
-8.36558e-06
0.00355447
2.10287e-05
0.00334681
4.78961e-05
0.00325573
3.46124e-05
0.00332686
1.69883e-05
0.00316282
1.92643e-05
0.00285012
4.09223e-05
0.00263837
6.11543e-05
0.00253658
6.4856e-05
0.00252127
4.94911e-05
0.00251106
2.4722e-05
0.00246622
-3.96706e-06
0.00235549
-2.70317e-05
0.00219148
-2.96728e-05
0.0019765
-1.27327e-05
0.00182286
1.61411e-05
0.00170665
4.19446e-05
0.00159993
6.4057e-05
0.00153881
8.35671e-05
0.00151738
8.34605e-05
0.0015379
6.97353e-05
0.00154436
5.21884e-05
0.0015108
2.99267e-05
0.0014383
7.32485e-06
0.00129503
1.52218e-05
0.00105063
5.23328e-05
0.00091512
4.47464e-05
0.000979814
1.69107e-05
0.00111166
1.60761e-06
0.00109079
-7.19019e-06
0.00103947
-1.11204e-05
0.000974748
-3.63661e-06
0.000869861
7.0405e-06
0.000774106
1.33733e-05
0.000737475
8.80171e-06
0.000744172
0.000779849
7.96192e-05
9.29788e-05
0.000135929
0.000285459
0.00018644
0.000482524
8.66677e-05
0.000593045
-0.000142025
0.000795077
-0.000238042
0.00104633
-0.00016238
0.00115811
-8.7443e-05
0.00121103
-3.26213e-05
0.00128186
-5.16639e-06
0.00133078
-8.83238e-06
0.00130787
8.56921e-06
0.00108227
9.28983e-06
0.0011246
-2.44095e-05
0.00133489
-5.37795e-05
0.00149848
-6.86495e-05
0.00155309
-7.11429e-05
0.00161522
-6.50105e-05
0.00161199
-5.03877e-05
0.00158412
-3.13139e-05
0.00161168
-1.04909e-05
0.00167404
7.34554e-06
0.00178006
1.58906e-06
0.00195659
-2.2225e-05
0.00217862
-4.38858e-05
0.00236394
-6.6302e-05
0.00247796
-8.49038e-05
0.00251234
-8.37467e-05
0.00248773
-6.08562e-05
0.00248601
-3.08445e-05
0.00256523
-2.73249e-06
0.00271075
4.16453e-06
0.00292678
-1.01048e-05
0.00314186
-3.22805e-05
0.00352759
-5.09609e-05
0.00370963
-6.08004e-05
0.00373004
-5.22879e-05
0.0037304
-2.34908e-05
0.00379919
-2.0312e-07
0.00400568
-1.16942e-05
0.0044029
-3.86287e-05
0.00486785
-3.95935e-05
0.00485558
-9.57749e-06
0.0048644
2.54256e-05
0.0050859
2.81169e-05
0.00541878
1.56274e-05
0.00583412
1.70058e-05
0.0060241
1.19247e-05
0.00623254
2.88059e-06
0.0065265
-5.65787e-06
0.00687754
-1.07771e-05
0.00683282
-1.68942e-05
0.00653446
-2.00738e-05
0.0062804
-3.24408e-05
0.00608077
-3.2037e-05
0.00567943
6.53178e-06
0.00531947
4.0474e-05
0.00508973
3.93575e-05
0.00496206
2.26558e-05
0.00491024
1.40279e-05
0.00469224
4.39806e-06
0.00444969
-1.16188e-05
0.00430845
-2.10225e-05
0.00404202
-1.77523e-05
0.00373499
-4.80876e-06
0.00351523
2.25578e-05
0.00330092
4.51206e-05
0.00318712
4.08115e-05
0.00330356
2.58954e-05
0.00314666
2.41925e-05
0.00282706
4.34779e-05
0.00260306
6.19801e-05
0.00249963
6.22662e-05
0.00248043
4.89524e-05
0.00249983
3.28912e-05
0.00246406
1.13204e-05
0.00238231
-1.63078e-05
0.00218529
-2.31967e-05
0.0019655
-6.54229e-06
0.00179406
2.17483e-05
0.00167256
4.73572e-05
0.00156976
6.97567e-05
0.00151626
8.43153e-05
0.00149101
8.11468e-05
0.00152656
7.40009e-05
0.0015551
6.33601e-05
0.00151267
4.91493e-05
0.00145436
2.08586e-05
0.00130577
1.80299e-05
0.00105342
4.01582e-05
0.00090304
2.96763e-05
0.000989283
-3.80536e-07
0.00114065
-1.26945e-05
0.00108684
-1.20743e-05
0.00102907
-9.4367e-06
0.000968177
-7.40876e-06
0.000861873
1.80886e-06
0.000765014
8.43395e-06
0.000726995
-3.70361e-06
0.000740821
0.000775864
1.92911e-05
8.85859e-05
5.95628e-05
0.000314458
9.42695e-05
0.000571993
-3.58099e-05
0.000720773
-0.000245091
0.000923251
-0.000276222
0.00104799
-0.000169762
0.00108633
-9.44011e-05
0.00116563
-3.71974e-05
0.00124543
-7.37726e-06
0.00129719
-6.52141e-06
0.00130508
-3.14528e-06
0.00109463
-1.90352e-05
0.00115391
-5.07885e-05
0.00138191
-7.77104e-05
0.0015446
-8.43611e-05
0.00160663
-8.38309e-05
0.00162582
-7.37884e-05
0.00161917
-5.02129e-05
0.00158828
-3.26769e-05
0.00161312
-1.79971e-05
0.00167839
-6.49635e-06
0.00179173
-1.77753e-05
0.00198628
-3.30159e-05
0.00222027
-4.97918e-05
0.0024145
-7.03813e-05
0.00251942
-8.58518e-05
0.00256155
-7.71444e-05
0.00253084
-5.68897e-05
0.00249726
-3.51342e-05
0.00257571
-1.77719e-05
0.00272971
-2.09139e-05
0.00296534
-2.37131e-05
0.0032455
-3.83014e-05
0.00358684
-5.34235e-05
0.0037573
-5.62261e-05
0.00379798
-4.4754e-05
0.00381111
-2.80253e-05
0.00382957
-1.60078e-05
0.00404252
-2.12722e-05
0.00453172
-3.98277e-05
0.0049426
-3.49926e-05
0.00495778
-1.24981e-05
0.0049153
8.33723e-06
0.00514804
1.14571e-05
0.00559015
5.49728e-06
0.00601766
6.47019e-06
0.0062229
5.8502e-06
0.00649516
1.79728e-06
0.00680983
-4.98281e-06
0.00717136
-7.64205e-06
0.0071211
-1.06907e-05
0.00681975
-1.23564e-05
0.00652034
-1.53031e-05
0.00628694
-1.40046e-05
0.00587933
7.19348e-06
0.00538871
2.83279e-05
0.00515088
3.26782e-05
0.00512891
2.33469e-05
0.00503944
1.68393e-05
0.0048019
1.18756e-05
0.00456648
4.01271e-07
0.00440325
-3.57886e-06
0.00413432
-2.85778e-06
0.00380366
7.09578e-07
0.0035603
2.03556e-05
0.00332081
4.42225e-05
0.00322564
4.50319e-05
0.0033367
3.60216e-05
0.00319789
3.20324e-05
0.0028714
4.27071e-05
0.00262716
5.77552e-05
0.0025156
6.6809e-05
0.00252929
5.63901e-05
0.00255075
4.18412e-05
0.00250043
2.34861e-05
0.00240268
3.67997e-06
0.00224186
-7.01747e-06
0.00200103
2.25244e-06
0.00180844
2.8791e-05
0.00166266
4.87642e-05
0.00156738
6.93705e-05
0.00151171
8.76189e-05
0.00149638
8.94305e-05
0.00154586
8.47368e-05
0.00157129
7.87057e-05
0.00152989
6.50787e-05
0.00146612
4.37117e-05
0.00134136
2.71376e-05
0.00109027
2.70985e-05
0.000918564
7.83864e-06
0.0010108
-1.7359e-05
0.00114622
-2.36296e-05
0.00109081
-1.82367e-05
0.00102744
-1.09089e-05
0.00096666
-4.92529e-06
0.000868712
-9.52197e-06
0.000779256
-7.05308e-06
0.000735891
-5.09349e-06
0.000749839
0.000769298
-7.72589e-06
0.000101368
2.55369e-05
0.000350996
2.82072e-05
0.000670282
-0.000109902
0.000846948
-0.000270666
0.00100321
-0.000255478
0.00104099
-0.000165169
0.00103613
-0.000101114
0.00111251
-2.99491e-05
0.00118643
3.14146e-06
0.00127645
-2.44778e-07
0.00129852
-5.6887e-06
0.00110066
-3.87093e-05
0.00119113
-7.73609e-05
0.00142593
-9.01459e-05
0.00157006
-8.43582e-05
0.001626
-8.53093e-05
0.00162071
-7.62109e-05
0.00160255
-5.72949e-05
0.00156053
-4.04401e-05
0.00157943
-2.5322e-05
0.0016615
-1.93822e-05
0.00176479
-3.43767e-05
0.00198547
-4.92751e-05
0.00224085
-5.75054e-05
0.00240926
-6.93383e-05
0.00252678
-8.26671e-05
0.00255901
-7.72018e-05
0.00249914
-5.86462e-05
0.00247005
-3.89262e-05
0.0025566
-2.26352e-05
0.00270883
-2.98332e-05
0.00295922
-4.28439e-05
0.00320612
-4.85143e-05
0.00355374
-5.02806e-05
0.00373871
-5.1258e-05
0.00376924
-4.57622e-05
0.00376035
-3.09386e-05
0.00380337
-2.27005e-05
0.00401943
-3.15119e-05
0.00447501
-3.95827e-05
0.00492576
-3.20116e-05
0.00489651
-1.32918e-05
0.00487119
1.027e-05
0.00508664
1.02795e-05
0.00549201
4.42161e-06
0.00593767
9.70651e-06
0.00611423
5.65342e-06
0.00635583
6.88547e-07
0.00667572
-4.49709e-06
0.00703185
-5.99696e-06
0.00697737
-1.10684e-05
0.00667036
-1.15627e-05
0.00639576
-1.77836e-05
0.00619702
-1.83748e-05
0.00576186
7.84934e-06
0.00531875
3.06258e-05
0.00509192
3.19356e-05
0.00502501
2.26603e-05
0.00499694
1.67752e-05
0.00475681
1.40397e-05
0.00451695
9.78564e-06
0.00436897
5.19326e-06
0.0040958
1.56077e-06
0.00377674
4.09018e-06
0.00354017
2.18823e-05
0.00329365
4.15762e-05
0.00318065
4.7871e-05
0.00331244
4.18863e-05
0.00318532
3.60165e-05
0.00286024
4.54049e-05
0.00260863
5.89747e-05
0.00249207
6.48718e-05
0.0024941
5.7652e-05
0.00253578
4.99592e-05
0.00250494
4.0746e-05
0.00241082
2.24789e-05
0.00223797
7.42502e-06
0.00198634
1.57773e-05
0.00178704
3.58347e-05
0.0016322
5.50966e-05
0.00154864
7.55642e-05
0.00147611
9.31874e-05
0.00147432
9.53954e-05
0.00153793
8.84534e-05
0.00155134
8.64643e-05
0.00152848
7.14224e-05
0.00146225
5.15608e-05
0.00136408
2.51864e-05
0.00112539
1.66173e-05
0.000940117
4.91707e-07
0.00102699
-1.95525e-05
0.00116867
-2.18654e-05
0.00109114
-1.57368e-05
0.00101622
3.49349e-07
0.000940829
-4.03018e-06
0.000868815
-9.17239e-06
0.000786007
-6.95337e-06
0.000731763
-7.8827e-06
0.000748421
0.00074887
-1.32517e-05
0.000113466
1.00514e-05
0.000377001
-4.64451e-07
0.000745501
-0.000129525
0.000953263
-0.000254399
0.0010627
-0.000220516
0.00102696
-0.00014425
0.000996096
-8.07545e-05
0.00105707
-2.04941e-05
0.00112867
4.11874e-06
0.00125271
-5.17315e-06
0.00130497
-1.69277e-05
0.00112344
-4.674e-05
0.00122721
-8.02733e-05
0.00145263
-9.8669e-05
0.001561
-9.97166e-05
0.00159252
-9.26242e-05
0.00161708
-7.84983e-05
0.00159976
-6.1469e-05
0.00155435
-5.01165e-05
0.00157715
-3.6232e-05
0.00165322
-3.71186e-05
0.00177752
-5.08621e-05
0.00200781
-6.07487e-05
0.00224802
-6.49495e-05
0.00241645
-7.10325e-05
0.00253271
-8.38861e-05
0.00258312
-7.41576e-05
0.00251809
-5.80876e-05
0.0024653
-4.2265e-05
0.00254861
-3.21089e-05
0.00271088
-4.31069e-05
0.00298593
-5.10696e-05
0.00327028
-5.82916e-05
0.00355748
-5.33966e-05
0.00374328
-4.93931e-05
0.00379169
-4.17234e-05
0.00380214
-3.43539e-05
0.00382112
-3.29206e-05
0.00404497
-3.71358e-05
0.00454963
-4.12014e-05
0.00494396
-2.95303e-05
0.00493919
-1.60961e-05
0.00488994
-4.02377e-06
0.00511569
-2.08465e-06
0.00560612
-4.7297e-06
0.00603549
-1.83313e-06
0.00623556
-3.54165e-07
0.00653364
-8.96884e-08
0.00685538
-4.12776e-06
0.00721514
-3.22541e-06
0.00716631
-4.52501e-06
0.00686058
-4.34289e-06
0.00654865
-4.32049e-06
0.00630936
-3.133e-06
0.00590141
8.62397e-06
0.00535389
2.11576e-05
0.00511821
2.88933e-05
0.00513837
2.47099e-05
0.00505539
1.8515e-05
0.00481744
1.89593e-05
0.00456857
1.85889e-05
0.00440141
1.73783e-05
0.00413919
1.28206e-05
0.00381573
9.97603e-06
0.00356465
2.19695e-05
0.00330217
4.08859e-05
0.00318815
4.95796e-05
0.00331508
4.70208e-05
0.00320138
4.1553e-05
0.00288426
4.62393e-05
0.00262165
5.54111e-05
0.00249705
6.61764e-05
0.00251598
6.19701e-05
0.00254472
5.65898e-05
0.00250852
5.21386e-05
0.00240062
4.4495e-05
0.00225039
3.31174e-05
0.00200968
2.95662e-05
0.00178974
4.39805e-05
0.00163819
6.25288e-05
0.00153276
7.62762e-05
0.00147029
9.31234e-05
0.00145926
9.84422e-05
0.001546
9.25041e-05
0.00156894
8.68835e-05
0.00152588
7.4444e-05
0.00147397
5.92266e-05
0.00138049
3.05642e-05
0.00116451
8.31906e-06
0.00097574
-1.75038e-06
0.00105033
-1.8843e-05
0.00119039
-1.90079e-05
0.00109094
-2.19423e-06
0.00100932
4.35647e-06
0.000927742
4.00685e-06
0.000874072
-5.39607e-06
0.000797274
-1.02734e-05
0.00074195
-4.74069e-06
0.00074976
0.000750848
-1.09328e-05
0.000123685
2.68103e-06
0.000389952
-2.38112e-05
0.000808799
-0.000136002
0.00103691
-0.000215555
0.00109317
-0.000179249
0.000985483
-0.000102511
0.000954166
-5.88672e-05
0.00102347
-2.75698e-05
0.00111033
-1.15884e-05
0.00123278
-1.31681e-05
0.00132297
-2.52492e-05
0.00116218
-5.90762e-05
0.00126606
-8.79942e-05
0.00147149
-0.000101332
0.00158351
-0.000101979
0.0016023
-9.42497e-05
0.00160977
-8.26504e-05
0.00158527
-6.65345e-05
0.00154331
-5.65057e-05
0.00158067
-4.95197e-05
0.00164009
-4.76232e-05
0.00178086
-6.23858e-05
0.00201971
-7.02991e-05
0.00224477
-7.10349e-05
0.00242042
-7.5019e-05
0.00251867
-8.01621e-05
0.00258289
-7.28539e-05
0.00249583
-5.85299e-05
0.00244827
-4.7314e-05
0.00252438
-4.04298e-05
0.00269026
-5.03738e-05
0.00298813
-6.32681e-05
0.00325038
-6.38079e-05
0.00357437
-5.13365e-05
0.0037211
-4.70061e-05
0.00377115
-4.38982e-05
0.00377184
-3.61848e-05
0.00381188
-3.58616e-05
0.00404233
-4.31633e-05
0.00451577
-4.06223e-05
0.00492802
-2.73349e-05
0.00488714
-1.64182e-05
0.00486801
-2.12665e-06
0.00507993
-3.00701e-06
0.00552909
-4.12463e-06
0.00598406
2.11991e-06
0.00614776
3.42124e-08
0.00642618
-3.59443e-07
0.00675244
-4.1749e-06
0.00710846
-3.24172e-06
0.00705108
-6.23258e-06
0.00674919
-4.16861e-06
0.00644981
-5.73939e-06
0.00625171
-6.98158e-06
0.00580698
9.25744e-06
0.00531068
2.30336e-05
0.00508627
2.71948e-05
0.00505168
2.45503e-05
0.00502692
1.72942e-05
0.00479634
1.88064e-05
0.00453566
2.64906e-05
0.00437233
2.51731e-05
0.00411644
1.634e-05
0.00380686
1.28217e-05
0.0035587
2.40519e-05
0.0032916
3.98799e-05
0.00316157
5.09419e-05
0.00329665
5.00088e-05
0.00319243
4.39e-05
0.00288039
4.93774e-05
0.00261668
5.93205e-05
0.00248301
6.71741e-05
0.00249134
6.80492e-05
0.00253377
6.83636e-05
0.00249268
6.61288e-05
0.00238125
5.88351e-05
0.00225847
4.10893e-05
0.00202279
3.55616e-05
0.00178908
5.12247e-05
0.00162023
6.63174e-05
0.00151343
8.18446e-05
0.00146877
9.3886e-05
0.001442
9.17865e-05
0.001539
8.71165e-05
0.00157871
8.61185e-05
0.00153466
8.23329e-05
0.00149877
6.15319e-05
0.00138301
2.57521e-05
0.00120499
7.06643e-06
0.000996315
2.32518e-06
0.00105345
-1.1451e-05
0.00117384
-1.23075e-05
0.00108224
5.9566e-06
0.000980503
1.1698e-05
0.000928032
7.71632e-06
0.000871717
4.06186e-07
0.000802053
-5.40554e-06
0.000751588
-5.63371e-06
0.000746666
0.000750064
-7.62902e-06
0.000132236
-6.53719e-07
0.000393736
-2.62706e-05
0.000855674
-0.000129503
0.00110393
-0.000161011
0.00110451
-0.000125026
0.000954232
-8.58593e-05
0.000941969
-5.98644e-05
0.00101485
-4.13433e-05
0.00110617
-3.5704e-05
0.00122139
-2.05473e-05
0.00132026
-3.72748e-05
0.00119014
-7.07542e-05
0.0013119
-9.28827e-05
0.00150894
-0.00010123
0.00160742
-0.000100443
0.0016109
-9.55935e-05
0.00160212
-8.36943e-05
0.00157968
-6.83009e-05
0.00152841
-5.96975e-05
0.00157193
-5.65113e-05
0.00165128
-6.37104e-05
0.00178545
-7.55497e-05
0.00203756
-8.14624e-05
0.00223885
-7.90448e-05
0.00241352
-7.99367e-05
0.00252638
-7.84833e-05
0.0025771
-6.97167e-05
0.0025056
-6.01332e-05
0.00244682
-5.07312e-05
0.00253787
-4.8249e-05
0.00271568
-6.16151e-05
0.00301681
-6.81652e-05
0.00328495
-6.4047e-05
0.00357479
-5.22293e-05
0.00371537
-4.82373e-05
0.00378055
-4.31404e-05
0.00379416
-3.78838e-05
0.00381149
-3.9898e-05
0.00404941
-4.47226e-05
0.00456051
-4.30506e-05
0.00493761
-2.70982e-05
0.00490822
-1.8683e-05
0.00487444
-1.337e-05
0.0050957
-1.15206e-05
0.00561294
-1.19675e-05
0.00603508
-8.82352e-06
0.00623262
-5.94475e-06
0.00654594
-1.69397e-06
0.00686687
-3.34937e-06
0.00722919
-1.54847e-07
0.00718071
1.06997e-08
0.00687456
2.08348e-06
0.00655237
4.33586e-06
0.00631116
5.45173e-06
0.00591096
1.00713e-05
0.00533313
1.64645e-05
0.00510029
2.6373e-05
0.00512893
2.6662e-05
0.00505182
1.87292e-05
0.00483431
2.23573e-05
0.00455916
3.23617e-05
0.00437406
3.34806e-05
0.00413537
2.47483e-05
0.00383479
1.70118e-05
0.00357572
2.51835e-05
0.00328679
4.02533e-05
0.00315799
5.16809e-05
0.00329515
5.15689e-05
0.00319658
4.61777e-05
0.00289412
5.14817e-05
0.00261259
5.86578e-05
0.00248346
6.86686e-05
0.00249774
7.11886e-05
0.00253836
7.44113e-05
0.00250582
7.69562e-05
0.00241186
7.07134e-05
0.00224812
5.95423e-05
0.00204559
5.21463e-05
0.00181618
5.67423e-05
0.00160932
6.87989e-05
0.00151663
8.5405e-05
0.00144954
9.32334e-05
0.00144258
8.70736e-05
0.0015452
8.76068e-05
0.00157442
8.78695e-05
0.00153704
7.68263e-05
0.00150652
6.14576e-05
0.00141239
2.95228e-05
0.00124675
1.81975e-06
0.00103214
5.18122e-06
0.00106026
9.11117e-06
0.00117683
1.36333e-06
0.0010829
8.72166e-06
0.000959872
2.20519e-05
0.000922745
2.26331e-05
0.000874699
1.27204e-05
0.000818473
9.40026e-07
0.000764914
2.1727e-07
0.000750164
0.000749181
-3.83714e-06
0.000138496
-1.49627e-06
0.000400478
-3.16951e-05
0.000890252
-0.000120638
0.00115669
-0.000128282
0.00110595
-9.70628e-05
0.000943522
-7.59639e-05
0.000947405
-6.11344e-05
0.00100325
-5.47815e-05
0.00109742
-4.83984e-05
0.00121794
-3.44161e-05
0.00128209
-4.7867e-05
0.00119294
-7.40306e-05
0.0013312
-9.14129e-05
0.00152136
-0.0001022
0.00159124
-9.67875e-05
0.00157427
-8.85813e-05
0.00158316
-8.50043e-05
0.00156261
-7.73652e-05
0.00151038
-7.00071e-05
0.00155638
-6.16685e-05
0.00164113
-7.0826e-05
0.00178818
-8.74254e-05
0.00202846
-8.84724e-05
0.00224471
-8.35609e-05
0.00238268
-7.82693e-05
0.00252468
-7.69605e-05
0.00255839
-7.21587e-05
0.00249109
-6.30226e-05
0.00243737
-5.17831e-05
0.00252407
-4.77013e-05
0.00270483
-6.20944e-05
0.00302556
-7.31368e-05
0.00327978
-6.79485e-05
0.00354243
-5.00336e-05
0.00370217
-4.50438e-05
0.00376738
-4.27627e-05
0.00377526
-4.00541e-05
0.00379144
-4.22499e-05
0.00402812
-4.70227e-05
0.00453987
-4.15933e-05
0.00493111
-2.60699e-05
0.00486341
-1.87931e-05
0.00486213
-1.17874e-05
0.0050767
-1.25575e-05
0.00555246
-9.94025e-06
0.00600001
-4.15025e-06
0.00616109
-4.88582e-06
0.00646535
-1.64344e-06
0.00678464
-3.28376e-06
0.0071547
-1.01653e-06
0.00708629
-2.81543e-06
0.00679316
1.17602e-06
0.00647747
3.1166e-06
0.00627242
1.92022e-06
0.005836
1.05867e-05
0.00530735
1.79156e-05
0.00508399
2.38582e-05
0.00506084
2.59204e-05
0.0050328
1.81729e-05
0.00481745
2.15824e-05
0.00453818
3.68918e-05
0.00434648
3.89053e-05
0.00412069
2.87479e-05
0.00383324
2.22727e-05
0.00357765
2.65843e-05
0.00326742
3.92874e-05
0.00314142
5.21345e-05
0.00328414
5.44376e-05
0.00318971
5.01342e-05
0.0028931
5.23691e-05
0.0025969
5.79684e-05
0.00248418
6.2993e-05
0.0024848
6.80591e-05
0.00252896
7.89071e-05
0.00249137
8.58974e-05
0.00239588
8.22404e-05
0.00224777
6.68234e-05
0.00206225
5.57942e-05
0.00182944
6.11858e-05
0.00161198
7.43838e-05
0.00150119
8.64465e-05
0.00142708
9.1333e-05
0.00144071
7.96392e-05
0.00154858
7.89451e-05
0.00156912
8.29696e-05
0.00152486
7.26187e-05
0.00149905
6.47117e-05
0.00143701
3.48518e-05
0.00127298
5.01919e-06
0.00107229
7.1737e-06
0.00106196
3.57184e-05
0.00116743
3.23557e-05
0.00107269
3.25458e-05
0.00096571
3.15888e-05
0.000918885
2.88966e-05
0.00088038
1.87123e-05
0.000825495
7.45578e-06
0.000778431
2.92385e-06
0.00075886
0.000756555
-3.4602e-06
0.000144745
-6.54039e-06
0.000411497
-3.6138e-05
0.000928433
-0.00011657
0.00120908
-0.000102258
0.00109489
-7.74513e-05
0.000929336
-6.83563e-05
0.000940602
-6.5514e-05
0.00100379
-6.47909e-05
0.00110099
-6.6222e-05
0.00121513
-4.56889e-05
0.00126855
-5.16405e-05
0.00120003
-7.15711e-05
0.00134942
-8.9966e-05
0.00150903
-9.82817e-05
0.0016012
-9.23902e-05
0.00157304
-8.50242e-05
0.0015854
-8.18002e-05
0.00157042
-7.90183e-05
0.00151501
-7.40754e-05
0.00156433
-7.28132e-05
0.0016312
-7.80023e-05
0.00181824
-9.18478e-05
0.0020594
-9.29344e-05
0.00227017
-8.75508e-05
0.00238265
-7.99511e-05
0.00252104
-7.48847e-05
0.0025666
-6.87868e-05
0.00249286
-6.16242e-05
0.00243577
-5.64141e-05
0.00250856
-5.62981e-05
0.00269294
-6.42152e-05
0.00303866
-7.31023e-05
0.00330076
-7.0622e-05
0.00355912
-5.0212e-05
0.003677
-4.51833e-05
0.00377055
-4.31996e-05
0.00379059
-4.07931e-05
0.00381907
-4.45788e-05
0.00405635
-4.80906e-05
0.00456507
-4.19444e-05
0.00491984
-2.53601e-05
0.00487389
-2.0683e-05
0.00486599
-2.00083e-05
0.00508872
-1.80735e-05