/*--------------------------------*- C++ -*----------------------------------*\
| =========                 |                                                 |
| \\      /  F ield         | OpenFOAM: The Open Source CFD Toolbox           |
|  \\    /   O peration     | Version:  2312                                  |
|   \\  /    A nd           | Website:  www.openfoam.com                      |
|    \\/     M anipulation  |                                                 |
\*---------------------------------------------------------------------------*/
FoamFile
{
    version     2.0;
    format      ascii;
    arch        "LSB;label=32;scalar=64";
    class       volVectorField;
    location    "4";
    object      U.airMean;
}
// * * * * * * * * * * * * * * * * * * * * * * * * * * * * * * * * * * * * * //

dimensions      [0 1 -1 0 0 0 0];

internalField   nonuniform List<vector> 
50000
(
(0.00708366 0.119905 0)
(0.0105024 0.119062 0)
(0.0205364 0.117647 0)
(0.011525 0.116864 0)
(0.00693059 0.118848 0)
(0.00235657 0.119528 0)
(-0.00386225 0.118276 0)
(-0.00127361 0.121926 0)
(0.00135863 0.120149 0)
(-0.000109944 0.119702 0)
(-0.00585015 0.118965 0)
(-0.00995082 0.117374 0)
(-0.00951896 0.117081 0)
(0.00241993 0.119923 0)
(0.0119892 0.119922 0)
(0.0114308 0.116045 0)
(0.00351007 0.11699 0)
(-0.00063581 0.11562 0)
(-0.0011844 0.112944 0)
(-0.00318245 0.11147 0)
(-0.00640428 0.112688 0)
(-0.00637473 0.113252 0)
(-0.000630746 0.115211 0)
(0.00508511 0.114732 0)
(0.00939708 0.110267 0)
(0.00724138 0.109256 0)
(0.00146437 0.110018 0)
(-0.00206359 0.107544 0)
(-0.00483845 0.106171 0)
(-0.00963498 0.104294 0)
(-0.00299906 0.109977 0)
(0.00758874 0.107938 0)
(0.0101775 0.10085 0)
(0.00464635 0.100803 0)
(0.00106966 0.0980927 0)
(-0.000768389 0.0969887 0)
(-0.0053766 0.0988702 0)
(-0.0081183 0.0958292 0)
(0.00285263 0.104815 0)
(0.00818653 0.0877359 0)
(0.000105475 0.0981953 0)
(-0.00251074 0.0904632 0)
(-0.0037403 0.0957746 0)
(0.00483468 0.0939049 0)
(0.00639966 0.0815633 0)
(0.00309669 0.0825752 0)
(0.00280706 0.0785882 0)
(0.00121249 0.0762985 0)
(0.00110836 0.0748261 0)
(0.00024981 0.0747148 0)
(-0.000348622 0.0745813 0)
(-0.000468688 0.0751344 0)
(-0.00195869 0.0757936 0)
(-0.00202333 0.0799967 0)
(-0.00478531 0.0787579 0)
(-0.00359219 0.0917571 0)
(0.00409112 0.0916985 0)
(0.00467589 0.0835864 0)
(0.00131857 0.0856473 0)
(1.05232e-06 0.0879077 0)
(-0.00343263 0.0869848 0)
(-0.00354966 0.0904592 0)
(-0.00607995 0.092766 0)
(-0.00815642 0.0992944 0)
(-0.00999926 0.0972734 0)
(-0.00225797 0.109135 0)
(0.00733662 0.0991407 0)
(-0.00265177 0.105611 0)
(-0.00472073 0.107584 0)
(0.00277541 0.109181 0)
(0.00853418 0.105147 0)
(0.00586017 0.106036 0)
(0.00151743 0.10726 0)
(-0.000324397 0.108873 0)
(-0.00565038 0.110389 0)
(-0.010598 0.108799 0)
(-0.00691845 0.114309 0)
(-0.000897407 0.115295 0)
(0.00479952 0.113263 0)
(0.00640181 0.113179 0)
(0.00540507 0.11174 0)
(0.00410585 0.112425 0)
(0.00282372 0.11435 0)
(-0.000652696 0.116295 0)
(-0.00551308 0.116044 0)
(-0.0064772 0.119111 0)
(-0.00501077 0.119763 0)
(0.00157614 0.117625 0)
(0.00359925 0.117811 0)
(0.00629789 0.118082 0)
(0.00407106 0.119225 0)
(-0.00105869 0.119278 0)
(0.000717305 0.121326 0)
(0.00624606 0.11885 0)
(0.00344946 0.118785 0)
(0.00436119 0.11824 0)
(0.00526296 0.117471 0)
(0.000511018 0.118187 0)
(0.0017025 0.118188 0)
(0.000248988 0.117112 0)
(0.0123009 0.242992 0)
(0.0245998 0.250996 0)
(0.0224385 0.254878 0)
(0.0130349 0.25904 0)
(0.0114426 0.255729 0)
(-0.00246082 0.260543 0)
(-0.0108294 0.255399 0)
(-0.00181655 0.247017 0)
(0.00497823 0.251633 0)
(0.00347025 0.257784 0)
(-0.00997605 0.257019 0)
(-0.0214782 0.253158 0)
(-0.0188639 0.245561 0)
(0.00107147 0.239751 0)
(0.018803 0.243142 0)
(0.0225002 0.254005 0)
(0.0136399 0.256682 0)
(0.00297897 0.254619 0)
(-0.00422413 0.254114 0)
(-0.00866097 0.254214 0)
(-0.013882 0.252984 0)
(-0.0131218 0.24902 0)
(-0.00257683 0.246926 0)
(0.00757043 0.247343 0)
(0.0139876 0.251543 0)
(0.0135628 0.254175 0)
(0.00348845 0.254068 0)
(-0.00453542 0.253391 0)
(-0.011554 0.253733 0)
(-0.0158543 0.251845 0)
(-0.00547801 0.247514 0)
(0.00875705 0.248594 0)
(0.0143669 0.252853 0)
(0.00729575 0.253444 0)
(0.000732903 0.253292 0)
(-0.00214365 0.252743 0)
(-0.00960613 0.252937 0)
(-0.0112386 0.2507 0)
(0.00247902 0.249417 0)
(0.0112623 0.252501 0)
(0.00220771 0.252781 0)
(-0.00620727 0.252009 0)
(-0.00477554 0.251197 0)
(0.00415365 0.250546 0)
(0.00706565 0.251854 0)
(0.00343042 0.251446 0)
(0.00239707 0.251357 0)
(0.00095952 0.251292 0)
(0.00112544 0.25114 0)
(0.000235809 0.251089 0)
(-0.000377548 0.251075 0)
(-0.000438711 0.251183 0)
(-0.00166277 0.251214 0)
(-0.00215085 0.251349 0)
(-0.0050362 0.251548 0)
(-0.00333836 0.2506 0)
(0.00475757 0.250739 0)
(0.00587327 0.251839 0)
(0.00310061 0.251766 0)
(0.000589047 0.252114 0)
(-0.0035543 0.251739 0)
(-0.00319528 0.252519 0)
(-0.00526395 0.252154 0)
(-0.0114007 0.252287 0)
(-0.0120832 0.251322 0)
(-0.00121804 0.248565 0)
(0.0123167 0.252175 0)
(-0.00281607 0.254331 0)
(-0.00793664 0.250599 0)
(0.00489655 0.248642 0)
(0.013972 0.251364 0)
(0.0122579 0.253685 0)
(0.00524613 0.253291 0)
(-0.0013063 0.253926 0)
(-0.0123292 0.25434 0)
(-0.0161063 0.252892 0)
(-0.0100035 0.247782 0)
(-0.000327649 0.246625 0)
(0.00977844 0.248238 0)
(0.0135011 0.250837 0)
(0.0118191 0.252425 0)
(0.010607 0.253731 0)
(0.00535463 0.254378 0)
(-0.00484905 0.255684 0)
(-0.0139376 0.254344 0)
(-0.0136505 0.248766 0)
(-0.00708758 0.24465 0)
(0.00538616 0.24627 0)
(0.0110688 0.249306 0)
(0.0106685 0.252336 0)
(0.00284028 0.256322 0)
(-0.00404356 0.252946 0)
(-0.00113469 0.245146 0)
(0.00998467 0.2477 0)
(0.00624943 0.253226 0)
(0.00479154 0.249007 0)
(0.0136956 0.25279 0)
(0.0104033 0.254654 0)
(0.0056335 0.254813 0)
(0.00150298 0.254933 0)
(0.00511237 0.230859 0)
(0.017293 0.24563 0)
(0.0184588 0.253505 0)
(0.0124811 0.249202 0)
(0.00738545 0.2541 0)
(0.00239739 0.261156 0)
(-0.00729347 0.248052 0)
(-0.00426881 0.24637 0)
(0.00205093 0.247899 0)
(-0.000393682 0.255913 0)
(-0.0083171 0.257002 0)
(-0.0181613 0.249345 0)
(-0.0132451 0.234702 0)
(0.00121165 0.235445 0)
(0.0141624 0.239237 0)
(0.0134957 0.244595 0)
(0.00679493 0.250882 0)
(-0.00114913 0.248776 0)
(-0.00790243 0.24228 0)
(-0.011371 0.239054 0)
(-0.0136585 0.240308 0)
(-0.0113161 0.236533 0)
(-0.00305484 0.237306 0)
(0.00598011 0.236254 0)
(0.0108176 0.233591 0)
(0.00825305 0.235236 0)
(0.00166693 0.238435 0)
(-0.00610014 0.234837 0)
(-0.0121459 0.231939 0)
(-0.0125296 0.225331 0)
(-0.00531406 0.231393 0)
(0.00613914 0.229759 0)
(0.00866061 0.221032 0)
(0.00565556 0.224527 0)
(-0.000568662 0.221617 0)
(-0.00446503 0.219873 0)
(-0.00871211 0.220356 0)
(-0.00901584 0.21661 0)
(0.00188276 0.225967 0)
(0.00550815 0.20645 0)
(0.000710758 0.220903 0)
(-0.00594804 0.210996 0)
(-0.0040735 0.215343 0)
(0.00324319 0.21419 0)
(0.00560807 0.200801 0)
(0.00240843 0.201812 0)
(0.00241667 0.198264 0)
(0.000894917 0.196145 0)
(0.0011284 0.194785 0)
(0.000161046 0.194674 0)
(-0.000334828 0.194582 0)
(-0.000397783 0.195042 0)
(-0.00169401 0.195681 0)
(-0.00161527 0.199476 0)
(-0.00423746 0.198373 0)
(-0.00291934 0.211777 0)
(0.00502086 0.211706 0)
(0.00546138 0.202464 0)
(0.00348671 0.205156 0)
(0.00120991 0.207276 0)
(-0.000427922 0.20633 0)
(-0.00220137 0.209871 0)
(-0.00492359 0.212911 0)
(-0.00756174 0.219271 0)
(-0.00733712 0.217399 0)
(-0.00226522 0.230392 0)
(0.0104886 0.218898 0)
(-0.000418871 0.232813 0)
(-0.00268152 0.230097 0)
(0.00574478 0.23056 0)
(0.0111179 0.226482 0)
(0.0121743 0.230788 0)
(0.00680696 0.233906 0)
(-9.31063e-05 0.238493 0)
(-0.0068917 0.237846 0)
(-0.0121433 0.232185 0)
(-0.00871307 0.236786 0)
(0.000678277 0.236698 0)
(0.00892023 0.235829 0)
(0.0135157 0.239258 0)
(0.0136057 0.237737 0)
(0.0130325 0.240046 0)
(0.0079008 0.246321 0)
(0.000717995 0.250159 0)
(-0.00569812 0.245677 0)
(-0.00970582 0.244188 0)
(-0.0056115 0.240825 0)
(0.00233006 0.237445 0)
(0.00883569 0.243719 0)
(0.0117957 0.249579 0)
(0.00570063 0.254792 0)
(-7.44085e-05 0.250109 0)
(-0.00161113 0.243838 0)
(0.00560367 0.24215 0)
(0.000992682 0.250478 0)
(0.00410608 0.241276 0)
(0.0116931 0.242382 0)
(0.00812083 0.251289 0)
(0.00469904 0.253084 0)
(0.000674745 0.249955 0)
(0.00226494 0.252621 0)
(0.0139848 0.267541 0)
(0.0181039 0.282126 0)
(0.00885886 0.285497 0)
(0.00050806 0.283589 0)
(0.00163333 0.295834 0)
(-0.00733203 0.287347 0)
(-0.00418901 0.27208 0)
(0.0029122 0.279156 0)
(0.000909066 0.293583 0)
(-0.00647916 0.296231 0)
(-0.0146332 0.283764 0)
(-0.0118665 0.263682 0)
(0.000888665 0.255661 0)
(0.012691 0.267513 0)
(0.0107469 0.284299 0)
(0.00391959 0.292186 0)
(-0.000192758 0.294838 0)
(-0.00592221 0.291157 0)
(-0.0144562 0.287523 0)
(-0.0147459 0.282417 0)
(-0.0114487 0.274986 0)
(-0.00369721 0.270772 0)
(0.00555196 0.273788 0)
(0.0102871 0.281646 0)
(0.00706894 0.287825 0)
(0.000675113 0.290606 0)
(-0.00523609 0.290445 0)
(-0.0132411 0.287072 0)
(-0.0138475 0.283049 0)
(-0.00578327 0.274901 0)
(0.00513173 0.277346 0)
(0.00831689 0.287108 0)
(0.00530675 0.288814 0)
(-0.000277834 0.289242 0)
(-0.00609067 0.288876 0)
(-0.00941166 0.288236 0)
(-0.00906131 0.283759 0)
(0.00116864 0.27983 0)
(0.00697519 0.290027 0)
(-5.18058e-05 0.288788 0)
(-0.00599478 0.289466 0)
(-0.00421584 0.285112 0)
(0.0025815 0.284969 0)
(0.00582335 0.290716 0)
(0.00239833 0.290191 0)
(0.00222502 0.290625 0)
(0.00076007 0.29072 0)
(0.000990344 0.290693 0)
(0.000141278 0.290758 0)
(-0.000305424 0.29064 0)
(-0.00041909 0.290816 0)
(-0.0013953 0.290826 0)
(-0.0015441 0.290398 0)
(-0.00427192 0.290866 0)
(-0.00242827 0.285615 0)
(0.00504816 0.285808 0)
(0.00600933 0.290261 0)
(0.00284859 0.289811 0)
(0.00165754 0.2902 0)
(0.0015565 0.289456 0)
(-0.00341966 0.289145 0)
(-0.00550384 0.289767 0)
(-0.00616666 0.287635 0)
(-0.00720118 0.285157 0)
(-0.00123828 0.276741 0)
(0.0110537 0.286918 0)
(0.000233386 0.28916 0)
(-0.00153361 0.281058 0)
(0.00615298 0.277061 0)
(0.0122419 0.282517 0)
(0.0134899 0.286422 0)
(0.00614509 0.289801 0)
(0.000602519 0.29024 0)
(-0.00419253 0.288721 0)
(-0.0119708 0.284191 0)
(-0.0079745 0.274161 0)
(0.00105923 0.271238 0)
(0.00914785 0.273766 0)
(0.0143158 0.278752 0)
(0.0167437 0.283107 0)
(0.0114685 0.287252 0)
(0.00594654 0.292673 0)
(0.00298495 0.292573 0)
(-0.00320282 0.289159 0)
(-0.0082087 0.278217 0)
(-0.0046299 0.268608 0)
(0.00194543 0.267339 0)
(0.00783703 0.273753 0)
(0.0114928 0.284927 0)
(0.0071948 0.292318 0)
(0.000228391 0.285624 0)
(-0.00141468 0.271613 0)
(0.00410503 0.275274 0)
(-0.000158433 0.282376 0)
(0.00503497 0.266667 0)
(0.0106509 0.275553 0)
(0.0078053 0.286072 0)
(0.00639613 0.293919 0)
(0.0029941 0.293614 0)
(0.00256874 0.241412 0)
(0.0111683 0.254159 0)
(0.0105309 0.27303 0)
(0.00412235 0.2778 0)
(-0.00166974 0.27491 0)
(0.000291358 0.289818 0)
(-0.00357759 0.276818 0)
(-0.00190677 0.265969 0)
(0.00123087 0.271181 0)
(0.000204129 0.288428 0)
(-0.0040045 0.293917 0)
(-0.0103769 0.277045 0)
(-0.00808723 0.250008 0)
(0.000718633 0.24554 0)
(0.00711681 0.259024 0)
(0.00438007 0.272722 0)
(-0.00144798 0.283398 0)
(-0.00637531 0.282917 0)
(-0.00853322 0.279054 0)
(-0.0136068 0.272499 0)
(-0.0123408 0.265766 0)
(-0.0104144 0.258515 0)
(-0.00398025 0.256561 0)
(0.00248123 0.258727 0)
(0.00458514 0.260073 0)
(0.0014563 0.267818 0)
(-0.00271348 0.272969 0)
(-0.0075017 0.270591 0)
(-0.0122811 0.265161 0)
(-0.0092547 0.253163 0)
(-0.00563008 0.254101 0)
(0.00166503 0.254508 0)
(0.00254155 0.252553 0)
(0.0016574 0.258915 0)
(-0.0025869 0.256894 0)
(-0.00605725 0.255479 0)
(-0.00768252 0.253887 0)
(-0.00722217 0.246555 0)
(-0.000336871 0.252439 0)
(0.0012229 0.240561 0)
(-0.00145301 0.257033 0)
(-0.00559596 0.246606 0)
(-0.00352574 0.247 0)
(0.00129823 0.245845 0)
(0.00321306 0.236462 0)
(0.00119267 0.238785 0)
(0.00161954 0.235155 0)
(0.000317143 0.233058 0)
(0.000858639 0.23158 0)
(-1.07685e-05 0.231607 0)
(-0.000212994 0.23142 0)
(-0.000140413 0.232008 0)
(-0.00102732 0.232698 0)
(-0.000842626 0.236598 0)
(-0.00254447 0.234713 0)
(-0.00164142 0.244366 0)
(0.0043565 0.244401 0)
(0.00492738 0.238506 0)
(0.00367111 0.241821 0)
(0.00185565 0.242895 0)
(0.00228737 0.243102 0)
(-0.000755734 0.245908 0)
(-0.00250135 0.247917 0)
(-0.00211421 0.252958 0)
(-0.00198476 0.247525 0)
(-0.000881261 0.254564 0)
(0.00922549 0.252294 0)
(0.00288848 0.2665 0)
(0.00193686 0.258078 0)
(0.00677602 0.254741 0)
(0.00855469 0.254231 0)
(0.0123229 0.263229 0)
(0.0077757 0.26943 0)
(0.00443262 0.271918 0)
(0.000190875 0.272031 0)
(-0.00454783 0.260982 0)
(-0.00393703 0.258317 0)
(0.00186608 0.257028 0)
(0.00880467 0.256838 0)
(0.0125225 0.262385 0)
(0.0151802 0.267953 0)
(0.0121053 0.274118 0)
(0.0108811 0.279546 0)
(0.00720424 0.282492 0)
(0.00185774 0.278167 0)
(-0.00264057 0.270213 0)
(-0.00221757 0.259526 0)
(0.00165626 0.253768 0)
(0.0062155 0.263399 0)
(0.0107928 0.276663 0)
(0.00801384 0.287763 0)
(0.0028646 0.280392 0)
(-0.00062434 0.266744 0)
(0.00271363 0.265581 0)
(2.34585e-05 0.274588 0)
(0.0038009 0.25541 0)
(0.00667033 0.263722 0)
(0.00543425 0.278662 0)
(0.00288373 0.285157 0)
(0.00126984 0.292064 0)
(0.00361833 0.24696 0)
(0.00908552 0.26424 0)
(0.00693774 0.285857 0)
(0.000843208 0.291314 0)
(-0.0034157 0.282712 0)
(0.000355538 0.297498 0)
(-0.00296804 0.29139 0)
(-0.00149346 0.274234 0)
(0.000550342 0.28151 0)
(0.00094377 0.298234 0)
(-0.000801192 0.300078 0)
(-0.00532681 0.286429 0)
(-0.00479847 0.259597 0)
(0.000515881 0.252686 0)
(0.00493753 0.26617 0)
(0.000634398 0.289865 0)
(-0.0049401 0.298132 0)
(-0.0084272 0.29941 0)
(-0.00892815 0.297331 0)
(-0.0118134 0.292446 0)
(-0.0118964 0.283806 0)
(-0.0108504 0.275958 0)
(-0.00431295 0.270506 0)
(0.00116686 0.274185 0)
(0.00315157 0.285314 0)
(-0.00214481 0.292819 0)
(-0.00380007 0.296259 0)
(-0.00743509 0.296327 0)
(-0.0108559 0.290847 0)
(-0.00846462 0.284623 0)
(-0.00569797 0.275705 0)
(0.000993522 0.278908 0)
(0.00174785 0.290954 0)
(0.000164361 0.293778 0)
(-0.00343291 0.294714 0)
(-0.00660556 0.293984 0)
(-0.00678117 0.292423 0)
(-0.00692045 0.286705 0)
(-0.000840958 0.281893 0)
(0.00163958 0.294774 0)
(-0.00285611 0.294031 0)
(-0.00443219 0.294517 0)
(-0.00332135 0.288379 0)
(0.00115136 0.288378 0)
(0.00372671 0.296269 0)
(0.00105591 0.295765 0)
(0.00170279 0.296435 0)
(0.000343071 0.296576 0)
(0.000625629 0.29659 0)
(-5.21576e-05 0.296778 0)
(-4.62369e-05 0.296571 0)
(-6.80287e-05 0.296808 0)
(-0.000913811 0.29684 0)
(-0.000772996 0.296113 0)
(-0.00299717 0.296697 0)
(-0.0014405 0.289211 0)
(0.00425093 0.289357 0)
(0.00520921 0.295696 0)
(0.00321848 0.295197 0)
(0.00141035 0.295377 0)
(0.00339463 0.29491 0)
(-0.00100424 0.29438 0)
(-0.00413492 0.294692 0)
(-0.000372616 0.291884 0)
(-0.0017336 0.289163 0)
(0.000178396 0.277721 0)
(0.00867827 0.29018 0)
(0.003498 0.294167 0)
(0.00316113 0.283189 0)
(0.00699681 0.278914 0)
(0.00789622 0.284225 0)
(0.0108827 0.290051 0)
(0.00802688 0.29483 0)
(0.00516311 0.295857 0)
(0.00387266 0.294009 0)
(-0.00224099 0.288674 0)
(-0.00230586 0.274636 0)
(0.00246676 0.270672 0)
(0.00920504 0.274097 0)
(0.0121616 0.280048 0)
(0.0135682 0.285975 0)
(0.0119589 0.29219 0)
(0.0110553 0.296555 0)
(0.00872421 0.299297 0)
(0.00475645 0.296615 0)
(0.000169196 0.282251 0)
(-0.000202858 0.268385 0)
(0.0017206 0.265402 0)
(0.00415272 0.270298 0)
(0.008248 0.285079 0)
(0.00778354 0.298831 0)
(0.00329817 0.292643 0)
(0.000656466 0.275011 0)
(0.00358669 0.276558 0)
(0.000942903 0.284413 0)
(0.00378844 0.264101 0)
(0.00480689 0.277306 0)
(0.0031645 0.289629 0)
(0.000603921 0.297636 0)
(-0.000605806 0.30149 0)
(0.00299347 0.237345 0)
(0.00677314 0.259838 0)
(0.00569038 0.283687 0)
(0.000500478 0.289107 0)
(-0.00258598 0.278041 0)
(0.000161019 0.292749 0)
(-0.00231006 0.280975 0)
(0.000364325 0.269331 0)
(0.000468801 0.274138 0)
(0.00125063 0.292441 0)
(0.00168118 0.295975 0)
(-0.00241735 0.281483 0)
(-0.0025566 0.251675 0)
(-0.000152254 0.246441 0)
(-0.00117166 0.26232 0)
(-0.00578554 0.280605 0)
(-0.00948221 0.290371 0)
(-0.0113061 0.28987 0)
(-0.0105289 0.288235 0)
(-0.0115275 0.281131 0)
(-0.010853 0.271744 0)
(-0.00944139 0.262103 0)
(-0.00506454 0.25822 0)
(-0.00143133 0.262673 0)
(-0.00229676 0.268239 0)
(-0.00588615 0.277436 0)
(-0.00700448 0.281965 0)
(-0.0089591 0.280847 0)
(-0.00988581 0.274384 0)
(-0.00721765 0.260602 0)
(-0.00525535 0.259336 0)
(-0.00200423 0.26094 0)
(-0.00270694 0.262601 0)
(-0.00273202 0.270235 0)
(-0.00507131 0.269399 0)
(-0.00593797 0.267399 0)
(-0.00600721 0.264595 0)
(-0.00578105 0.256538 0)
(-0.00236543 0.259823 0)
(-0.00210919 0.253698 0)
(-0.00347552 0.269133 0)
(-0.00451858 0.259061 0)
(-0.00296532 0.257785 0)
(-0.000167876 0.256502 0)
(0.00113916 0.250025 0)
(3.85196e-05 0.25309 0)
(0.000837132 0.249634 0)
(-0.000302647 0.247974 0)
(0.000481597 0.246527 0)
(-0.000135214 0.246513 0)
(-2.92417e-05 0.246384 0)
(0.000219908 0.246936 0)
(-0.000329306 0.247476 0)
(-0.000124777 0.25134 0)
(-0.000989671 0.248903 0)
(-0.000578818 0.255761 0)
(0.003522 0.255823 0)
(0.00407834 0.252492 0)
(0.00402225 0.256183 0)
(0.00206872 0.255569 0)
(0.00322375 0.257259 0)
(0.000945823 0.26068 0)
(0.0005882 0.259105 0)
(0.00189075 0.263166 0)
(0.00201084 0.257815 0)
(0.000975859 0.260352 0)
(0.00734849 0.262734 0)
(0.00572821 0.276205 0)
(0.00499884 0.266194 0)
(0.00679052 0.26138 0)
(0.00732545 0.262071 0)
(0.0101694 0.272215 0)
(0.00934831 0.279626 0)
(0.00850761 0.279705 0)
(0.00677817 0.281832 0)
(0.00403917 0.270523 0)
(0.00206557 0.263246 0)
(0.00353404 0.259207 0)
(0.0081347 0.259802 0)
(0.0109868 0.267062 0)
(0.0127807 0.274528 0)
(0.0122407 0.282071 0)
(0.0127606 0.286872 0)
(0.0116241 0.291428 0)
(0.00868719 0.288511 0)
(0.00563104 0.276406 0)
(0.00281971 0.263523 0)
(0.00305571 0.256166 0)
(0.00312744 0.264686 0)
(0.00676833 0.277344 0)
(0.00790812 0.293453 0)
(0.00485105 0.288051 0)
(0.00207704 0.271215 0)
(0.00356478 0.270024 0)
(0.00215793 0.279376 0)
(0.00332143 0.257651 0)
(0.00324883 0.270474 0)
(0.00120221 0.285782 0)
(-0.000751154 0.292053 0)
(-0.000605982 0.294659 0)
(0.00268266 0.236935 0)
(0.00452212 0.267838 0)
(0.00344334 0.293866 0)
(-0.000554414 0.299115 0)
(-0.00236244 0.283831 0)
(0.000659098 0.299534 0)
(-0.00164516 0.29286 0)
(0.000939019 0.274083 0)
(0.00105115 0.282475 0)
(0.000894796 0.295871 0)
(0.00177382 0.304308 0)
(7.05481e-05 0.291204 0)
(-0.000571435 0.260761 0)
(-0.000884769 0.253535 0)
(-0.00312621 0.270426 0)
(-0.00831765 0.293898 0)
(-0.0123209 0.300654 0)
(-0.0132145 0.299268 0)
(-0.0106044 0.297446 0)
(-0.0101879 0.292787 0)
(-0.00987983 0.283088 0)
(-0.00920692 0.271536 0)
(-0.00559598 0.265548 0)
(-0.00351708 0.271409 0)
(-0.00396246 0.287082 0)
(-0.00829679 0.293941 0)
(-0.00835076 0.295774 0)
(-0.00953385 0.295558 0)
(-0.00792604 0.290474 0)
(-0.00643867 0.283726 0)
(-0.00533416 0.275137 0)
(-0.00221944 0.278365 0)
(-0.00341472 0.290911 0)
(-0.00464879 0.293705 0)
(-0.00548774 0.295214 0)
(-0.00540408 0.294085 0)
(-0.00496282 0.292176 0)
(-0.00575077 0.286197 0)
(-0.00257403 0.281145 0)
(-0.0024332 0.294868 0)
(-0.00441605 0.294481 0)
(-0.00327285 0.294416 0)
(-0.00273748 0.287601 0)
(4.00982e-06 0.287636 0)
(0.00192319 0.296343 0)
(-8.47426e-05 0.295901 0)
(0.00108854 0.296657 0)
(-0.000175957 0.296853 0)
(0.000372452 0.296842 0)
(-0.000166619 0.297259 0)
(7.17779e-05 0.296837 0)
(0.000271065 0.297132 0)
(-0.000332806 0.297153 0)
(-4.16947e-05 0.296272 0)
(-0.00169541 0.296886 0)
(-0.000566909 0.288421 0)
(0.00345267 0.288507 0)
(0.00425259 0.295725 0)
(0.00415468 0.295479 0)
(0.00162415 0.295321 0)
(0.00268618 0.295275 0)
(0.00141491 0.294573 0)
(-0.000939708 0.294282 0)
(0.00206036 0.29166 0)
(0.00161662 0.289526 0)
(0.00166192 0.276859 0)
(0.00655839 0.288776 0)
(0.00607962 0.294636 0)
(0.00571326 0.282641 0)
(0.00707851 0.278802 0)
(0.0069458 0.283202 0)
(0.00813096 0.289533 0)
(0.00945275 0.29506 0)
(0.00941772 0.297544 0)
(0.00926853 0.294912 0)
(0.00622338 0.290193 0)
(0.00398528 0.275326 0)
(0.0047921 0.266455 0)
(0.00832653 0.269311 0)
(0.0101156 0.275719 0)
(0.0107128 0.286424 0)
(0.0115396 0.291909 0)
(0.0139045 0.296181 0)
(0.013659 0.300119 0)
(0.0103227 0.297707 0)
(0.00747052 0.285162 0)
(0.00447036 0.269313 0)
(0.00351146 0.265815 0)
(0.00196226 0.270961 0)
(0.00472926 0.280239 0)
(0.00694222 0.297266 0)
(0.00455898 0.295391 0)
(0.00316128 0.277598 0)
(0.0041747 0.276764 0)
(0.00353921 0.285049 0)
(0.00347464 0.263463 0)
(0.0025897 0.281214 0)
(-0.000572979 0.292392 0)
(-0.00193785 0.299385 0)
(-0.00144893 0.299531 0)
(0.00173057 0.233404 0)
(0.00234348 0.265585 0)
(0.00294802 0.292693 0)
(-0.00176443 0.295121 0)
(-0.00168787 0.279011 0)
(-0.000382819 0.296007 0)
(-0.00154545 0.285014 0)
(0.00268891 0.271298 0)
(0.00144275 0.27601 0)
(0.000283911 0.294114 0)
(0.000335789 0.300212 0)
(-0.000584845 0.287505 0)
(0.000221798 0.257569 0)
(-0.00211157 0.253458 0)
(-0.00707876 0.270012 0)
(-0.0117911 0.288281 0)
(-0.0143979 0.294959 0)
(-0.0140598 0.292089 0)
(-0.0114077 0.288584 0)
(-0.0100885 0.284248 0)
(-0.00860994 0.275086 0)
(-0.00860126 0.265969 0)
(-0.00657762 0.26198 0)
(-0.00644219 0.267058 0)
(-0.00766874 0.274594 0)
(-0.00993085 0.283666 0)
(-0.0108131 0.283488 0)
(-0.0105121 0.285945 0)
(-0.00785821 0.278415 0)
(-0.00659095 0.265951 0)
(-0.00475243 0.263275 0)
(-0.00458666 0.26569 0)
(-0.00626845 0.269887 0)
(-0.00647118 0.276142 0)
(-0.00652777 0.276297 0)
(-0.00503515 0.27411 0)
(-0.00507984 0.271552 0)
(-0.00493937 0.263529 0)
(-0.00377942 0.265007 0)
(-0.00442275 0.263076 0)
(-0.00438215 0.275777 0)
(-0.00395286 0.266678 0)
(-0.00244798 0.264843 0)
(-0.00131984 0.263604 0)
(-0.000370924 0.259444 0)
(-0.000798596 0.262657 0)
(0.000145385 0.259584 0)
(-0.000875598 0.258443 0)
(0.000192652 0.257153 0)
(-0.000197614 0.257003 0)
(6.48718e-05 0.256921 0)
(0.000468006 0.257388 0)
(0.000331511 0.257788 0)
(0.000540948 0.261381 0)
(4.83311e-05 0.258759 0)
(0.000361765 0.263226 0)
(0.00295117 0.263426 0)
(0.00327679 0.261689 0)
(0.00444484 0.265836 0)
(0.00247403 0.264401 0)
(0.00294444 0.266043 0)
(0.00276364 0.269995 0)
(0.0032932 0.266299 0)
(0.00356021 0.269248 0)
(0.004123 0.265185 0)
(0.00256362 0.264472 0)
(0.00590192 0.268793 0)
(0.007807 0.28135 0)
(0.00666283 0.271246 0)
(0.00648871 0.266222 0)
(0.00712734 0.267844 0)
(0.00825643 0.276595 0)
(0.00956514 0.28375 0)
(0.0111406 0.284344 0)
(0.011513 0.285005 0)
(0.00977049 0.277412 0)
(0.0073104 0.267978 0)
(0.00647628 0.262993 0)
(0.00815913 0.262662 0)
(0.00917776 0.271369 0)
(0.0101439 0.277078 0)
(0.0117657 0.284506 0)
(0.0137953 0.2881 0)
(0.0145388 0.29349 0)
(0.0129088 0.293044 0)
(0.0107975 0.281695 0)
(0.00658866 0.26919 0)
(0.00494233 0.261532 0)
(0.00253816 0.267408 0)
(0.00415343 0.277216 0)
(0.00595599 0.296307 0)
(0.00473688 0.293688 0)
(0.00384865 0.274424 0)
(0.00458189 0.272021 0)
(0.0047727 0.282269 0)
(0.00289812 0.261134 0)
(0.00230364 0.277573 0)
(-0.00109668 0.291135 0)
(-0.00177128 0.295779 0)
(-0.000548549 0.294353 0)
(0.00182529 0.235272 0)
(0.000844535 0.268297 0)
(0.0015074 0.29594 0)
(-0.00183918 0.301401 0)
(-0.00117508 0.278542 0)
(-0.00104634 0.2985 0)
(-0.00102461 0.288445 0)
(0.00332525 0.26998 0)
(0.000660203 0.284356 0)
(-0.00106505 0.297147 0)
(-0.000446271 0.30194 0)
(-0.00039522 0.289221 0)
(-0.000823962 0.262445 0)
(-0.00309766 0.258902 0)
(-0.00798195 0.275311 0)
(-0.0129654 0.295981 0)
(-0.0151485 0.300939 0)
(-0.0141853 0.296262 0)
(-0.0108559 0.293779 0)
(-0.0084463 0.288473 0)
(-0.00827138 0.280338 0)
(-0.0084734 0.270941 0)
(-0.00689346 0.265306 0)
(-0.00681027 0.271524 0)
(-0.00811819 0.286387 0)
(-0.011385 0.29245 0)
(-0.0116882 0.29642 0)
(-0.0106155 0.294147 0)
(-0.00581195 0.287567 0)
(-0.00622931 0.280104 0)
(-0.00499167 0.27288 0)
(-0.00447534 0.27717 0)
(-0.00662628 0.288856 0)
(-0.00772538 0.292249 0)
(-0.00632952 0.292646 0)
(-0.00436704 0.291464 0)
(-0.00464033 0.289751 0)
(-0.00509782 0.284262 0)
(-0.00371597 0.27908 0)
(-0.00454494 0.29234 0)
(-0.00483735 0.292206 0)
(-0.00307427 0.291624 0)
(-0.00233037 0.284931 0)
(-0.000918676 0.284847 0)
(0.000483524 0.293462 0)
(-0.000888938 0.293274 0)
(0.000497598 0.294084 0)
(-0.00070474 0.294176 0)
(0.000207091 0.294029 0)
(-0.000193642 0.294686 0)
(3.41424e-05 0.294021 0)
(0.000440629 0.294526 0)
(0.000179826 0.294306 0)
(0.000583512 0.293688 0)
(-0.000649031 0.294089 0)
(0.000262282 0.285359 0)
(0.00291984 0.285475 0)
(0.00356529 0.292933 0)
(0.00449422 0.293083 0)
(0.00223629 0.292916 0)
(0.00152897 0.292701 0)
(0.00327574 0.29211 0)
(0.00293134 0.291682 0)
(0.00355478 0.289198 0)
(0.00319859 0.287337 0)
(0.002784 0.27521 0)
(0.00528209 0.285019 0)
(0.00780912 0.292473 0)
(0.00698465 0.281131 0)
(0.00669379 0.277063 0)
(0.00709741 0.280978 0)
(0.00681949 0.287075 0)
(0.00972415 0.293129 0)
(0.011593 0.292053 0)
(0.0124215 0.294386 0)
(0.0107274 0.28929 0)
(0.00803471 0.274985 0)
(0.0067305 0.266659 0)
(0.00789475 0.26861 0)
(0.00890889 0.275045 0)
(0.00932822 0.281877 0)
(0.0108039 0.287971 0)
(0.0131208 0.294307 0)
(0.0142549 0.30042 0)
(0.0132065 0.299829 0)
(0.0118295 0.287978 0)
(0.00762082 0.273357 0)
(0.00597903 0.268511 0)
(0.00209375 0.269443 0)
(0.00247823 0.278706 0)
(0.00551365 0.297822 0)
(0.00546773 0.295712 0)
(0.0047114 0.277274 0)
(0.00490673 0.276541 0)
(0.00552039 0.286644 0)
(0.0039723 0.265836 0)
(0.0024661 0.284322 0)
(-0.00117342 0.295677 0)
(-0.00186092 0.296534 0)
(-0.000586192 0.296516 0)
(0.00168065 0.232804 0)
(-0.000663588 0.268715 0)
(-0.000356251 0.295114 0)
(-0.00159367 0.298114 0)
(-0.000740739 0.277896 0)
(-0.00268566 0.296979 0)
(-0.000346441 0.283577 0)
(0.00264664 0.271923 0)
(-0.00023051 0.281773 0)
(-0.00205827 0.296359 0)
(-0.00265769 0.299913 0)
(-0.00095123 0.289568 0)
(-0.0014571 0.262488 0)
(-0.00487498 0.257932 0)
(-0.0094567 0.278278 0)
(-0.0132257 0.294697 0)
(-0.0151092 0.297483 0)
(-0.0136759 0.29089 0)
(-0.010551 0.287977 0)
(-0.00758199 0.285675 0)
(-0.00763466 0.277782 0)
(-0.00804781 0.26532 0)
(-0.00756308 0.260822 0)
(-0.00963173 0.268061 0)
(-0.0113333 0.278181 0)
(-0.0122349 0.287078 0)
(-0.012995 0.287139 0)
(-0.0104177 0.284834 0)
(-0.00638705 0.279568 0)
(-0.00657137 0.27018 0)
(-0.00463027 0.265932 0)
(-0.00620643 0.2693 0)
(-0.00806875 0.274775 0)
(-0.00844339 0.279854 0)
(-0.00692333 0.279127 0)
(-0.00425738 0.2776 0)
(-0.00506669 0.275898 0)
(-0.00436716 0.26797 0)
(-0.00440563 0.268393 0)
(-0.00548974 0.269388 0)
(-0.00436856 0.279296 0)
(-0.00387431 0.271336 0)
(-0.00213043 0.269266 0)
(-0.00212863 0.268074 0)
(-0.00141715 0.265878 0)
(-0.00155754 0.26878 0)
(-0.000428953 0.266116 0)
(-0.001307 0.265499 0)
(-0.000128277 0.264367 0)
(-0.000131239 0.264125 0)
(0.000146797 0.264131 0)
(0.000643556 0.264478 0)
(0.000742591 0.264767 0)
(0.00104948 0.268016 0)
(0.00117519 0.265405 0)
(0.00118886 0.268068 0)
(0.00242474 0.268216 0)
(0.00241403 0.267565 0)
(0.00427173 0.271743 0)
(0.0030438 0.270864 0)
(0.00267562 0.271135 0)
(0.00402345 0.274774 0)
(0.00556651 0.271096 0)
(0.00454464 0.273152 0)
(0.00483539 0.269717 0)
(0.00362597 0.266916 0)
(0.00535099 0.271639 0)
(0.00872593 0.283634 0)
(0.00746432 0.27452 0)
(0.00631114 0.269104 0)
(0.0072709 0.271336 0)
(0.00711105 0.2785 0)
(0.00994961 0.284499 0)
(0.0126216 0.287517 0)
(0.0125793 0.288766 0)
(0.0126765 0.281308 0)
(0.0103705 0.27119 0)
(0.00811567 0.262903 0)
(0.0085599 0.262377 0)
(0.00874374 0.270696 0)
(0.00849652 0.279455 0)
(0.00958934 0.281977 0)
(0.0117592 0.287921 0)
(0.0142496 0.296368 0)
(0.0134796 0.296303 0)
(0.01244 0.286829 0)
(0.00896964 0.273233 0)
(0.00735112 0.266885 0)
(0.00337622 0.273356 0)
(0.00308832 0.274644 0)
(0.00556613 0.293547 0)
(0.00593529 0.292371 0)
(0.00511677 0.275674 0)
(0.00477061 0.273044 0)
(0.00625806 0.285168 0)
(0.00424515 0.266226 0)
(0.0033106 0.283901 0)
(-0.000705052 0.296953 0)
(-0.00259136 0.296451 0)
(-0.00208395 0.293198 0)
(0.0014916 0.236439 0)
(-0.000667561 0.274091 0)
(-0.000558577 0.29844 0)
(-0.0032521 0.299221 0)
(-0.00223281 0.280686 0)
(-0.00361209 0.298745 0)
(-0.00162342 0.28464 0)
(0.00173981 0.273944 0)
(-0.000871536 0.28828 0)
(-0.00361953 0.301062 0)
(-0.00473328 0.302493 0)
(-0.00148735 0.290742 0)
(-0.00188695 0.266887 0)
(-0.00511094 0.266168 0)
(-0.00935863 0.281864 0)
(-0.0127303 0.300375 0)
(-0.014506 0.300537 0)
(-0.0131932 0.295206 0)
(-0.00993907 0.291474 0)
(-0.006709 0.288066 0)
(-0.00684613 0.28189 0)
(-0.00793016 0.273272 0)
(-0.00793176 0.268372 0)
(-0.00934785 0.275319 0)
(-0.0109114 0.287881 0)
(-0.0126085 0.293398 0)
(-0.0127533 0.29373 0)
(-0.00981021 0.291206 0)
(-0.00591929 0.286983 0)
(-0.00665901 0.280387 0)
(-0.00474472 0.273965 0)
(-0.00593702 0.278969 0)
(-0.00811709 0.289508 0)
(-0.0087702 0.291596 0)
(-0.00636305 0.292193 0)
(-0.00399992 0.29113 0)
(-0.00454793 0.290026 0)
(-0.00462033 0.283047 0)
(-0.00437664 0.279757 0)
(-0.0052336 0.291844 0)
(-0.00470186 0.292806 0)
(-0.00309571 0.291228 0)
(-0.00205146 0.284577 0)
(-0.00179279 0.284825 0)
(-0.000672794 0.292963 0)
(-0.00142154 0.292953 0)
(4.5445e-05 0.2933 0)
(-0.00114445 0.293557 0)
(5.44314e-05 0.293137 0)
(-0.000242689 0.294056 0)
(0.000118777 0.293457 0)
(0.000532847 0.293762 0)
(0.000453254 0.293929 0)
(0.00103273 0.292975 0)
(0.000227332 0.293707 0)
(0.00100853 0.285152 0)
(0.00260295 0.285286 0)
(0.00273324 0.292294 0)
(0.00418182 0.29252 0)
(0.00299973 0.292532 0)
(0.00141622 0.292442 0)
(0.00402738 0.291382 0)
(0.00538823 0.291692 0)
(0.00439751 0.289591 0)
(0.0040624 0.287629 0)
(0.00380793 0.274685 0)
(0.00485075 0.284056 0)
(0.00853268 0.293046 0)
(0.00742038 0.282246 0)
(0.00660273 0.277862 0)
(0.00746476 0.280722 0)
(0.00697536 0.287012 0)
(0.00830407 0.289274 0)
(0.0121639 0.293528 0)
(0.0134295 0.293113 0)
(0.0122673 0.290842 0)
(0.010267 0.278206 0)
(0.00830932 0.270523 0)
(0.00830341 0.271147 0)
(0.00842111 0.277481 0)
(0.00774141 0.283795 0)
(0.00922356 0.288515 0)
(0.0104316 0.290972 0)
(0.012845 0.298178 0)
(0.0127134 0.30127 0)
(0.0117344 0.291591 0)
(0.00924553 0.278588 0)
(0.00722774 0.273726 0)
(0.00473423 0.275063 0)
(0.00415831 0.279918 0)
(0.00552122 0.298108 0)
(0.00616641 0.296897 0)
(0.00588284 0.280414 0)
(0.00484779 0.275009 0)
(0.00550369 0.28873 0)
(0.00361729 0.269711 0)
(0.00324392 0.291221 0)
(-0.000468901 0.303654 0)
(-0.00225944 0.30039 0)