/*--------------------------------*- C++ -*----------------------------------*\
| =========                 |                                                 |
| \\      /  F ield         | OpenFOAM: The Open Source CFD Toolbox           |
|  \\    /   O peration     | Version:  2312                                  |
|   \\  /    A nd           | Website:  www.openfoam.com                      |
|    \\/     M anipulation  |                                                 |
\*---------------------------------------------------------------------------*/
FoamFile
{
    version     2.0;
    format      ascii;
    arch        "LSB;label=32;scalar=64";
    class       volVectorField;
    location    "4";
    object      U.air;
}
// * * * * * * * * * * * * * * * * * * * * * * * * * * * * * * * * * * * * * //

dimensions      [0 1 -1 0 0 0 0];

internalField   nonuniform List<vector> 
50000
(
(0.0337096 0.118597 0)
(0.147124 0.123822 0)
(0.197128 0.121258 0)
(0.218222 0.118759 0)
(0.203222 0.106347 0)
(0.112938 0.0989126 0)
(0.0407537 0.119909 0)
(0.0206506 0.131272 0)
(0.0183185 0.134544 0)
(0.0145255 0.13184 0)
(0.0164554 0.126905 0)
(0.00599527 0.124967 0)
(0.0159565 0.123454 0)
(0.0245002 0.120023 0)
(0.0102308 0.122016 0)
(-0.00276622 0.124547 0)
(-0.0016312 0.120594 0)
(-0.00341053 0.114389 0)
(-0.00970512 0.112962 0)
(-0.0085537 0.11883 0)
(0.00218504 0.119234 0)
(0.00561602 0.118385 0)
(0.0103047 0.11625 0)
(0.00469703 0.114485 0)
(-0.00803924 0.120623 0)
(-0.00904062 0.11924 0)
(-0.0122362 0.113009 0)
(-0.0224365 0.110295 0)
(-0.0228502 0.115532 0)
(-0.00872422 0.118634 0)
(0.00217657 0.117975 0)
(0.0141633 0.11668 0)
(0.0157428 0.105299 0)
(0.00220805 0.11456 0)
(-0.00546515 0.115554 0)
(-0.0107522 0.1104 0)
(-0.0204774 0.107101 0)
(-0.0128505 0.117627 0)
(0.0117652 0.1177 0)
(0.0144301 0.105495 0)
(-0.00327473 0.114158 0)
(-0.0115456 0.107189 0)
(-0.0118877 0.114986 0)
(0.0126911 0.115833 0)
(0.0230916 0.0948434 0)
(0.0149739 0.101556 0)
(0.0129747 0.0903142 0)
(0.00997956 0.0786576 0)
(0.00550884 0.0747451 0)
(0.000497242 0.081181 0)
(-0.0039614 0.0737966 0)
(-0.00727026 0.0787416 0)
(-0.0115819 0.0836001 0)
(-0.0139158 0.0978292 0)
(-0.0224929 0.0859252 0)
(-0.0152406 0.115591 0)
(0.0139495 0.115167 0)
(0.0177434 0.0970447 0)
(0.00599158 0.106586 0)
(-0.00107455 0.108646 0)
(-0.00742187 0.106424 0)
(-0.0102238 0.109871 0)
(-0.0201746 0.108038 0)
(-0.0239115 0.109395 0)
(-0.0115935 0.116852 0)
(0.00202755 0.117754 0)
(0.011263 0.111505 0)
(0.00812235 0.114684 0)
(-0.00181988 0.113783 0)
(-0.00597604 0.116015 0)
(0.00167028 0.118096 0)
(0.0178242 0.116435 0)
(0.0171446 0.109676 0)
(0.00716374 0.112822 0)
(0.00498878 0.119402 0)
(0.00357838 0.122687 0)
(-0.00770691 0.114377 0)
(-0.0137091 0.114503 0)
(-0.00875993 0.117058 0)
(-0.00732376 0.117787 0)
(-0.000961822 0.119373 0)
(0.0090753 0.119499 0)
(0.0144905 0.114423 0)
(0.0131001 0.114064 0)
(0.00599479 0.119329 0)
(0.00951796 0.122959 0)
(0.00617335 0.124679 0)
(-0.0111155 0.118538 0)
(-0.0120953 0.121717 0)
(0.00910767 0.12088 0)
(0.02739 0.121126 0)
(0.0187123 0.123599 0)
(0.00483157 0.124338 0)
(0.00484926 0.123297 0)
(0.00734055 0.121836 0)
(0.00399842 0.11445 0)
(0.00273125 0.118043 0)
(-6.11636e-05 0.119427 0)
(-0.00160711 0.118539 0)
(-0.00415649 0.120667 0)
(0.0587818 0.224623 0)
(0.145942 0.23364 0)
(0.220807 0.251079 0)
(0.265049 0.256869 0)
(0.264991 0.287363 0)
(0.205867 0.296411 0)
(0.0574584 0.278426 0)
(0.0104405 0.280404 0)
(0.019071 0.279035 0)
(0.0360621 0.273581 0)
(0.0166645 0.27285 0)
(-0.00388737 0.246742 0)
(0.0206288 0.233843 0)
(0.0386859 0.250111 0)
(0.024511 0.263171 0)
(0.00704795 0.259971 0)
(0.00367924 0.255593 0)
(-0.0153465 0.25955 0)
(-0.0230379 0.256487 0)
(-0.0159071 0.248212 0)
(-0.00125842 0.245908 0)
(0.00855425 0.248168 0)
(0.0171545 0.253144 0)
(0.01524 0.26029 0)
(-0.00290758 0.255764 0)
(-0.0144264 0.253135 0)
(-0.0253981 0.257066 0)
(-0.0363871 0.257348 0)
(-0.0332428 0.250465 0)
(-0.0145789 0.245918 0)
(0.00210491 0.246972 0)
(0.0165623 0.250381 0)
(0.0246235 0.256668 0)
(0.0122928 0.257811 0)
(-0.01098 0.256251 0)
(-0.0233226 0.256547 0)
(-0.0309483 0.255094 0)
(-0.0170021 0.247654 0)
(0.0126048 0.248495 0)
(0.0232256 0.256565 0)
(-0.000936436 0.257278 0)
(-0.0223245 0.255301 0)
(-0.0133786 0.250865 0)
(0.0117847 0.249107 0)
(0.02776 0.25351 0)
(0.0188645 0.253456 0)
(0.0108946 0.253313 0)
(0.00900487 0.254153 0)
(0.00603092 0.253286 0)
(0.000377583 0.253412 0)
(-0.00472888 0.253155 0)
(-0.00738048 0.253979 0)
(-0.0101697 0.253656 0)
(-0.0167466 0.252992 0)
(-0.0265839 0.254486 0)
(-0.0153426 0.249164 0)
(0.0162646 0.249903 0)
(0.024246 0.254971 0)
(0.0146897 0.255819 0)
(0.000808837 0.255637 0)
(-0.00819172 0.255027 0)
(-0.0146842 0.255761 0)
(-0.0291536 0.256183 0)
(-0.0304314 0.253767 0)
(-0.0140604 0.248231 0)
(0.00338834 0.248379 0)
(0.0212384 0.252851 0)
(0.0166144 0.257246 0)
(-0.012077 0.257229 0)
(-0.0085382 0.252552 0)
(0.00480637 0.246381 0)
(0.0244041 0.250159 0)
(0.0291443 0.257475 0)
(0.0197485 0.257004 0)
(0.00745535 0.252857 0)
(-0.00267119 0.251251 0)
(-0.0181042 0.259245 0)
(-0.0213401 0.253845 0)
(-0.0132506 0.249803 0)
(-0.00845847 0.248875 0)
(0.00286503 0.244656 0)
(0.0185655 0.245783 0)
(0.0295692 0.253605 0)
(0.0274659 0.259522 0)
(0.010756 0.255329 0)
(0.00159886 0.255476 0)
(-0.00483685 0.261472 0)
(-0.0237395 0.258622 0)
(-0.0196144 0.240659 0)
(0.0151299 0.232511 0)
(0.0458277 0.24359 0)
(0.0399723 0.256206 0)
(0.0230288 0.26073 0)
(0.0178662 0.257196 0)
(0.00806984 0.257247 0)
(-0.000909268 0.260902 0)
(-0.00111398 0.256386 0)
(0.000471138 0.252666 0)
(0.00680473 0.254948 0)
(0.0158789 0.254722 0)
(0.0537338 0.19274 0)
(0.136268 0.217682 0)
(0.204868 0.2311 0)
(0.254551 0.244832 0)
(0.247205 0.282364 0)
(0.180562 0.309692 0)
(0.0460035 0.31408 0)
(0.0161483 0.322487 0)
(0.0256115 0.316754 0)
(0.0222389 0.311492 0)
(0.0055458 0.283165 0)
(-0.000296606 0.245425 0)
(0.0198042 0.241712 0)
(0.0280463 0.248593 0)
(0.0151891 0.270636 0)
(-0.0049377 0.26615 0)
(-0.0130939 0.257736 0)
(-0.0198745 0.251604 0)
(-0.0213914 0.240436 0)
(-0.0140031 0.243967 0)
(-0.00327246 0.244538 0)
(0.00644293 0.245339 0)
(0.0141338 0.244442 0)
(0.00852541 0.248165 0)
(-0.00390588 0.253206 0)
(-0.0192756 0.254089 0)
(-0.0284815 0.247365 0)
(-0.0357443 0.238161 0)
(-0.0319076 0.242389 0)
(-0.0154135 0.244403 0)
(1.24369e-05 0.244014 0)
(0.0144976 0.243577 0)
(0.0146313 0.226931 0)
(0.00922752 0.250253 0)
(-0.0128409 0.254064 0)
(-0.0251481 0.239737 0)
(-0.0267143 0.229761 0)
(-0.0162911 0.243899 0)
(0.00830351 0.244025 0)
(0.0125762 0.228199 0)
(-0.00236213 0.248955 0)
(-0.0233014 0.232405 0)
(-0.0111829 0.240759 0)
(0.00929915 0.24231 0)
(0.0216794 0.210771 0)
(0.0136531 0.220491 0)
(0.0100983 0.208473 0)
(0.00885533 0.197757 0)
(0.00533475 0.194147 0)
(-0.000108597 0.200096 0)
(-0.00445363 0.193446 0)
(-0.00739936 0.197952 0)
(-0.0101831 0.202484 0)
(-0.0128122 0.214681 0)
(-0.020816 0.204294 0)
(-0.0133054 0.241846 0)
(0.015744 0.241415 0)
(0.0196265 0.212738 0)
(0.0140802 0.230671 0)
(0.00284263 0.23532 0)
(-0.0051337 0.230539 0)
(-0.00977906 0.238321 0)
(-0.0229301 0.234287 0)
(-0.0230252 0.232516 0)
(-0.012461 0.243707 0)
(0.000789819 0.243675 0)
(0.0172388 0.23637 0)
(0.0187763 0.251814 0)
(-0.00494353 0.24686 0)
(-0.0015856 0.241943 0)
(0.00594301 0.244083 0)
(0.0236335 0.242721 0)
(0.025926 0.23528 0)
(0.0219428 0.246254 0)
(0.0118626 0.253952 0)
(-0.00274473 0.257139 0)
(-0.0138952 0.247973 0)
(-0.0198091 0.24224 0)
(-0.0132566 0.244499 0)
(-0.00470044 0.24429 0)
(0.00685292 0.243654 0)
(0.0187953 0.244186 0)
(0.0285619 0.241088 0)
(0.0297012 0.248189 0)
(0.0233417 0.255934 0)
(0.0133603 0.265527 0)
(0.00195788 0.264574 0)
(-0.0125197 0.253412 0)
(-0.0110054 0.23732 0)
(0.016018 0.229429 0)
(0.0367925 0.2377 0)
(0.0320266 0.26319 0)
(0.013349 0.266587 0)
(0.0109504 0.264605 0)
(0.00150229 0.263217 0)
(-0.0011081 0.247132 0)
(-0.000868909 0.243681 0)
(0.0120687 0.244338 0)
(0.00578539 0.240064 0)
(0.00500257 0.264484 0)
(0.042898 0.127158 0)
(0.114631 0.165063 0)
(0.162542 0.185204 0)
(0.214508 0.212298 0)
(0.189271 0.255191 0)
(0.108184 0.327183 0)
(-0.00984636 0.365471 0)
(-0.0111068 0.360713 0)
(0.00335595 0.358591 0)
(0.0128301 0.340009 0)
(-0.00140259 0.320976 0)
(-0.00140653 0.269441 0)
(0.0176948 0.246528 0)
(0.0216749 0.274997 0)
(0.00570875 0.295753 0)
(-0.0107669 0.305795 0)
(-0.0165009 0.299075 0)
(-0.0211275 0.291051 0)
(-0.0222967 0.280719 0)
(-0.0158449 0.267586 0)
(-0.00488562 0.266193 0)
(0.0059069 0.269134 0)
(0.0146292 0.278822 0)
(0.0074673 0.291242 0)
(-0.00701643 0.299757 0)
(-0.0191433 0.295682 0)
(-0.0299047 0.290255 0)
(-0.0373477 0.286169 0)
(-0.0326786 0.272392 0)
(-0.0169344 0.266326 0)
(-0.000923299 0.268311 0)
(0.0128861 0.274947 0)
(0.0156719 0.288421 0)
(0.00494184 0.291027 0)
(-0.0139806 0.292174 0)
(-0.0252669 0.288413 0)
(-0.0291657 0.28381 0)
(-0.0168816 0.269999 0)
(0.00595218 0.271475 0)
(0.0138067 0.289377 0)
(-0.00466754 0.290564 0)
(-0.0237449 0.288329 0)
(-0.0116403 0.274692 0)
(0.00768981 0.273531 0)
(0.0236319 0.289768 0)
(0.0128682 0.288983 0)
(0.00887883 0.29165 0)
(0.00857481 0.293087 0)
(0.00499257 0.29282 0)
(-0.000323509 0.291937 0)
(-0.004481 0.292891 0)
(-0.00755376 0.292896 0)
(-0.00905868 0.292485 0)
(-0.0130036 0.289691 0)
(-0.0231494 0.292806 0)
(-0.0116845 0.27317 0)
(0.0151455 0.274249 0)
(0.0228755 0.291361 0)
(0.0144142 0.289204 0)
(0.00427369 0.289203 0)
(-0.000608652 0.288745 0)
(-0.00776381 0.288117 0)
(-0.0206284 0.288001 0)
(-0.0218054 0.281944 0)
(-0.0109493 0.272683 0)
(0.00187906 0.270454 0)
(0.0175377 0.277669 0)
(0.0198823 0.290451 0)
(8.0731e-05 0.289373 0)
(-0.000712295 0.276843 0)
(0.00780602 0.268707 0)
(0.0244847 0.272522 0)
(0.0274746 0.286262 0)
(0.0222247 0.28985 0)
(0.0121804 0.295809 0)
(0.000768585 0.297316 0)
(-0.0131473 0.29034 0)
(-0.0204404 0.280659 0)
(-0.0128776 0.271586 0)
(-0.00368882 0.268823 0)
(0.00903652 0.263547 0)
(0.0213741 0.264433 0)
(0.0310649 0.275795 0)
(0.0307609 0.28837 0)
(0.0253388 0.297722 0)
(0.0139418 0.302106 0)
(0.0112294 0.301265 0)
(-0.00706194 0.286459 0)
(-0.0098418 0.251684 0)
(0.0152051 0.234213 0)
(0.0347782 0.259063 0)
(0.0283383 0.291624 0)
(0.00672312 0.302039 0)
(0.00521924 0.305778 0)
(5.3182e-05 0.302907 0)
(0.00026243 0.290965 0)
(-0.00193522 0.269325 0)
(0.0102532 0.269609 0)
(0.0045308 0.284144 0)
(0.00161014 0.29962 0)
(0.0299503 0.0714845 0)
(0.0755154 0.126491 0)
(0.105154 0.145557 0)
(0.120418 0.154751 0)
(0.0816515 0.189936 0)
(-0.00717383 0.322031 0)
(-0.0603576 0.361147 0)
(-0.0312119 0.361993 0)
(-0.0138787 0.357601 0)
(0.00150712 0.348686 0)
(-0.00555144 0.314719 0)
(-0.00281778 0.257675 0)
(0.0115659 0.239334 0)
(0.00674476 0.271785 0)
(-0.00634234 0.299006 0)
(-0.0150881 0.310487 0)
(-0.0225843 0.294934 0)
(-0.0267164 0.278424 0)
(-0.0215565 0.261693 0)
(-0.0126521 0.257306 0)
(-0.00663274 0.256736 0)
(0.00275396 0.258674 0)
(0.00702783 0.264391 0)
(0.00188608 0.28029 0)
(-0.00869191 0.297588 0)
(-0.0210577 0.291991 0)
(-0.0311016 0.27966 0)
(-0.0353823 0.263064 0)
(-0.0284193 0.259003 0)
(-0.0164756 0.257441 0)
(-0.00340728 0.258418 0)
(0.00495304 0.261062 0)
(0.003941 0.255352 0)
(0.000623372 0.283679 0)
(-0.016152 0.286909 0)
(-0.0249244 0.270866 0)
(-0.0240342 0.256035 0)
(-0.0144728 0.259122 0)
(-0.00026632 0.259888 0)
(0.00498878 0.258637 0)
(-0.00704803 0.28203 0)
(-0.021832 0.262472 0)
(-0.00982027 0.259953 0)
(0.00412301 0.260604 0)
(0.0139019 0.242158 0)
(0.00769261 0.256519 0)
(0.00610443 0.244091 0)
(0.00561316 0.233743 0)
(0.00403306 0.231486 0)
(-0.000713149 0.237418 0)
(-0.00379893 0.23051 0)
(-0.00575649 0.234387 0)
(-0.00725494 0.238908 0)
(-0.00879446 0.251748 0)
(-0.0131961 0.236529 0)
(-0.00831021 0.260227 0)
(0.0123073 0.260183 0)
(0.0161849 0.243603 0)
(0.0130342 0.264643 0)
(0.00512874 0.267635 0)
(0.00332649 0.263865 0)
(-0.00353386 0.270916 0)
(-0.0125771 0.264849 0)
(-0.0110654 0.256025 0)
(-0.0068554 0.261136 0)
(0.000383809 0.259514 0)
(0.0153924 0.258819 0)
(0.0202813 0.281381 0)
(0.00648991 0.277802 0)
(0.00583855 0.262547 0)
(0.00909172 0.258915 0)
(0.0211382 0.259485 0)
(0.0252822 0.260498 0)
(0.0235584 0.278363 0)
(0.0140063 0.291405 0)
(0.00497031 0.287529 0)
(-0.00786569 0.281218 0)
(-0.0125557 0.263946 0)
(-0.00971142 0.259745 0)
(-3.06342e-05 0.256822 0)
(0.0118493 0.253869 0)
(0.0194712 0.255099 0)
(0.0291479 0.259486 0)
(0.0333799 0.274035 0)
(0.029913 0.29293 0)
(0.0225395 0.296198 0)
(0.0170896 0.294924 0)
(0.00581864 0.283093 0)
(-0.00123831 0.243802 0)
(0.0139462 0.223847 0)
(0.0233259 0.250682 0)
(0.0117097 0.284727 0)
(0.0012896 0.305517 0)
(-7.67088e-05 0.305918 0)
(-0.00534557 0.29927 0)
(-0.00257804 0.272218 0)
(-0.000620695 0.258131 0)
(0.00570634 0.259479 0)
(0.00460628 0.264712 0)
(0.00186708 0.298626 0)
(0.0169584 0.0426751 0)
(0.0384288 0.104954 0)
(0.070091 0.166603 0)
(0.0645003 0.186029 0)
(-0.00997318 0.23588 0)
(-0.0904136 0.323827 0)
(-0.081265 0.355406 0)
(-0.0416301 0.347024 0)
(-0.0236309 0.355794 0)
(-0.000738612 0.349055 0)
(-0.00441705 0.327443 0)
(-0.0016985 0.253526 0)
(0.00838182 0.25322 0)
(-0.00249049 0.286162 0)
(-0.0157925 0.306615 0)
(-0.0245495 0.299573 0)
(-0.0266214 0.304094 0)
(-0.0266554 0.29309 0)
(-0.0221777 0.276614 0)
(-0.0149333 0.265379 0)
(-0.00840938 0.262447 0)
(0.000710662 0.268217 0)
(0.00466601 0.280423 0)
(-0.00370804 0.298123 0)
(-0.0126339 0.303422 0)
(-0.0204596 0.303848 0)
(-0.0294929 0.297112 0)
(-0.0342885 0.287057 0)
(-0.0277473 0.268945 0)
(-0.0176258 0.263044 0)
(-0.0049839 0.265766 0)
(0.00294055 0.275419 0)
(-0.000299694 0.290994 0)
(-0.00698916 0.299399 0)
(-0.0171229 0.299483 0)
(-0.0215986 0.292519 0)
(-0.0237718 0.284415 0)
(-0.0148818 0.268389 0)
(-0.0023446 0.27026 0)
(0.00172118 0.292723 0)
(-0.0101645 0.297232 0)
(-0.0192943 0.291744 0)
(-0.00987279 0.273411 0)
(0.00311447 0.272493 0)
(0.0156565 0.29419 0)
(0.00519035 0.293614 0)
(0.006645 0.297294 0)
(0.0058445 0.298724 0)
(0.00312716 0.29904 0)
(-0.00114806 0.297681 0)
(-0.00298754 0.299292 0)
(-0.00515898 0.298524 0)
(-0.00726324 0.298364 0)
(-0.00783125 0.294643 0)
(-0.0162631 0.298235 0)
(-0.0073534 0.272047 0)
(0.0117898 0.273146 0)
(0.0178661 0.29536 0)
(0.0118209 0.293685 0)
(0.00535341 0.292986 0)
(0.00496135 0.293036 0)
(-0.00129355 0.29339 0)
(-0.00758935 0.291284 0)
(-0.00793224 0.283835 0)
(-0.00539159 0.273245 0)
(0.0018271 0.268444 0)
(0.0143448 0.275503 0)
(0.0195556 0.294625 0)
(0.0110786 0.294596 0)
(0.00805582 0.278998 0)
(0.0104756 0.267337 0)
(0.0215373 0.270316 0)
(0.0245413 0.287593 0)
(0.0221713 0.296302 0)
(0.0148322 0.302557 0)
(0.00996794 0.306609 0)
(-0.00187617 0.298419 0)
(-0.00992809 0.282577 0)
(-0.00725921 0.271062 0)
(0.00223068 0.264894 0)
(0.0138335 0.257977 0)
(0.0212974 0.261489 0)
(0.0306397 0.271135 0)
(0.0319203 0.29021 0)
(0.0296397 0.303931 0)
(0.0251879 0.312646 0)
(0.0230261 0.313449 0)
(0.012742 0.294399 0)
(0.00351808 0.245549 0)
(0.010465 0.22102 0)
(0.0179958 0.255495 0)
(0.00493932 0.307404 0)
(-0.00492495 0.307474 0)
(-0.00446197 0.303214 0)
(-0.00475043 0.305152 0)
(-0.0025913 0.289455 0)
(-0.00280007 0.26607 0)
(0.00444565 0.263918 0)
(0.000747011 0.287568 0)
(-0.00224937 0.31324 0)
(0.00221969 0.0319069 0)
(0.0112753 0.112689 0)
(0.0378179 0.18107 0)
(0.0280991 0.221764 0)
(-0.0627387 0.283728 0)
(-0.115286 0.327626 0)
(-0.0836235 0.333378 0)
(-0.0429992 0.341165 0)
(-0.0262954 0.342611 0)
(-0.00217753 0.342413 0)
(-0.00293126 0.321534 0)
(-0.00195295 0.257293 0)
(-0.000576416 0.256226 0)
(-0.0142219 0.286792 0)
(-0.0240941 0.308854 0)
(-0.0327086 0.308626 0)
(-0.0304327 0.299191 0)
(-0.0313274 0.282577 0)
(-0.0230509 0.265236 0)
(-0.0139373 0.26128 0)
(-0.0105284 0.256105 0)
(-0.0021174 0.261858 0)
(-0.00319424 0.272217 0)
(-0.00965451 0.289914 0)
(-0.0150666 0.305883 0)
(-0.0219157 0.303095 0)
(-0.0304934 0.292054 0)
(-0.0329108 0.271046 0)
(-0.0242536 0.261079 0)
(-0.0177882 0.257675 0)
(-0.00778328 0.259474 0)
(-0.00582299 0.266339 0)
(-0.00900026 0.269357 0)
(-0.00923745 0.297978 0)
(-0.0189137 0.296625 0)
(-0.0209732 0.281723 0)
(-0.0202474 0.265179 0)
(-0.013134 0.261808 0)
(-0.00744815 0.2633 0)
(-0.00410547 0.271483 0)
(-0.0120876 0.293229 0)
(-0.0172761 0.272976 0)
(-0.00863744 0.26447 0)
(-0.000388227 0.264529 0)
(0.0067848 0.254248 0)
(0.00151227 0.271271 0)
(0.00265566 0.257857 0)
(0.00207223 0.250361 0)
(0.00231384 0.249358 0)
(-0.00113821 0.254543 0)
(-0.00248629 0.247828 0)
(-0.00319614 0.251306 0)
(-0.00462414 0.254487 0)
(-0.00462118 0.267425 0)
(-0.00653826 0.24966 0)
(-0.00396238 0.264089 0)
(0.00895734 0.264284 0)
(0.0121644 0.256788 0)
(0.0118173 0.278432 0)
(0.00567735 0.279355 0)
(0.00680398 0.276772 0)
(0.00210504 0.283412 0)
(-0.00180778 0.276348 0)
(-0.000788527 0.264297 0)
(-0.00137314 0.266219 0)
(0.00185364 0.2619 0)
(0.0131229 0.26411 0)
(0.0192538 0.288688 0)
(0.0144058 0.288695 0)
(0.012041 0.270046 0)
(0.0120204 0.261973 0)
(0.019025 0.262597 0)
(0.0243019 0.269585 0)
(0.0246644 0.289952 0)
(0.0174827 0.301081 0)
(0.0135277 0.305258 0)
(0.00393084 0.291682 0)
(-0.00128791 0.273306 0)
(-0.00360816 0.262733 0)
(0.00507654 0.254201 0)
(0.0157068 0.251323 0)
(0.0205475 0.257406 0)
(0.0304901 0.26213 0)
(0.0343409 0.282068 0)
(0.0318859 0.304763 0)
(0.030919 0.305778 0)
(0.027612 0.315454 0)
(0.0203314 0.289897 0)
(0.0125199 0.250472 0)
(0.00828796 0.223549 0)
(0.0107233 0.254734 0)
(-0.00384505 0.309793 0)
(-0.00919609 0.305251 0)
(-0.00777617 0.308905 0)
(-0.00632919 0.302938 0)
(-0.00121714 0.277637 0)
(-0.00316802 0.262635 0)
(-0.00351917 0.2593 0)
(-0.00165642 0.274494 0)
(-0.00238559 0.304771 0)
(-0.00511432 0.038876 0)
(0.000512369 0.124059 0)
(0.0213922 0.228937 0)
(-0.00408869 0.269398 0)
(-0.0838254 0.317223 0)
(-0.110227 0.329654 0)
(-0.0743904 0.31174 0)
(-0.0478184 0.321221 0)
(-0.0240314 0.330421 0)
(0.000760929 0.331219 0)
(0.00162625 0.320433 0)
(-0.00121098 0.259138 0)
(-0.00417523 0.262475 0)
(-0.0245202 0.302455 0)
(-0.0327646 0.319587 0)
(-0.0325002 0.319114 0)
(-0.0303908 0.303351 0)
(-0.0318097 0.28869 0)
(-0.0241885 0.268176 0)
(-0.0172688 0.253488 0)
(-0.0126103 0.260692 0)
(-0.00566943 0.25909 0)
(-0.00873091 0.281716 0)
(-0.01644 0.300592 0)
(-0.0196571 0.304777 0)
(-0.0225372 0.310488 0)
(-0.0287801 0.299465 0)
(-0.0320274 0.284094 0)
(-0.0241537 0.264192 0)
(-0.0188762 0.261724 0)
(-0.00931661 0.265416 0)
(-0.00746203 0.275212 0)
(-0.0148218 0.290179 0)
(-0.0163207 0.295575 0)
(-0.0193198 0.300119 0)
(-0.017954 0.2916 0)
(-0.0195805 0.281394 0)
(-0.013763 0.266135 0)
(-0.00876568 0.268281 0)
(-0.00827227 0.291784 0)
(-0.014546 0.298552 0)
(-0.0147827 0.289944 0)
(-0.00841722 0.270322 0)
(-0.00110128 0.269359 0)
(0.00843997 0.292323 0)
(-0.000978246 0.292459 0)
(0.00434682 0.296153 0)
(0.00255952 0.297659 0)
(0.00171726 0.298913 0)
(-0.00137536 0.297391 0)
(-0.0018338 0.299128 0)
(-0.00268372 0.297572 0)
(-0.00525414 0.297546 0)
(-0.00325057 0.29346 0)
(-0.00980063 0.296811 0)
(-0.00336049 0.268869 0)
(0.00886114 0.269942 0)
(0.013083 0.293377 0)
(0.0106765 0.293463 0)
(0.00603096 0.292227 0)
(0.00617822 0.292218 0)
(0.00436244 0.293448 0)
(0.00258954 0.290306 0)
(0.00137904 0.28292 0)
(-0.000213689 0.27241 0)
(0.003291 0.265331 0)
(0.0123185 0.270387 0)
(0.0182083 0.293155 0)
(0.0169505 0.295175 0)
(0.0136005 0.279097 0)
(0.0132378 0.265307 0)
(0.0197149 0.266404 0)
(0.0234685 0.284482 0)
(0.0240365 0.300641 0)
(0.0186967 0.307734 0)
(0.0179631 0.308709 0)
(0.0119907 0.301997 0)
(0.00439271 0.283876 0)
(0.00165808 0.26117 0)
(0.00934727 0.250634 0)
(0.0170392 0.254721 0)
(0.0233433 0.248506 0)
(0.0316608 0.267291 0)
(0.0366435 0.290767 0)
(0.0330945 0.304484 0)
(0.0325903 0.317074 0)
(0.0300095 0.312338 0)
(0.0232854 0.307375 0)
(0.0143097 0.260354 0)
(0.00480897 0.23111 0)
(0.00723309 0.266095 0)
(-0.00631724 0.313585 0)
(-0.00793778 0.312249 0)
(-0.00829643 0.305567 0)
(-0.00262355 0.296837 0)
(0.00182574 0.286478 0)
(-0.00401619 0.271274 0)
(-0.00294914 0.266315 0)
(-0.0021539 0.285868 0)
(-0.00367386 0.294743 0)
(-0.00440321 0.0413614 0)
(-0.00451093 0.139124 0)
(0.0140447 0.251438 0)
(-0.0166676 0.310927 0)
(-0.0837035 0.339588 0)
(-0.0965522 0.322983 0)
(-0.0629228 0.303972 0)
(-0.0419951 0.307494 0)
(-0.0161559 0.307203 0)
(0.00134618 0.325151 0)
(0.00180258 0.322131 0)
(-0.00504551 0.260672 0)
(-0.00839208 0.271996 0)
(-0.0257409 0.306427 0)
(-0.0332947 0.3175 0)
(-0.038175 0.310686 0)
(-0.0342202 0.299774 0)
(-0.0328106 0.281423 0)
(-0.024282 0.261957 0)
(-0.0205431 0.253029 0)
(-0.0153901 0.252729 0)
(-0.0110257 0.259348 0)
(-0.0160772 0.278207 0)
(-0.0207189 0.300713 0)
(-0.0237133 0.308633 0)
(-0.0231017 0.306407 0)
(-0.0291289 0.2971 0)
(-0.0314594 0.273941 0)
(-0.0225852 0.259873 0)
(-0.0195168 0.255965 0)
(-0.0107932 0.258315 0)
(-0.0130497 0.270416 0)
(-0.0176692 0.278089 0)
(-0.0204071 0.295171 0)
(-0.0213581 0.297896 0)
(-0.017745 0.285122 0)
(-0.017786 0.26935 0)
(-0.0127963 0.262341 0)
(-0.0121044 0.26468 0)
(-0.0116439 0.278337 0)
(-0.0157047 0.295908 0)
(-0.0139453 0.276367 0)
(-0.00754776 0.26556 0)
(-0.00407047 0.265105 0)
(0.00137607 0.261386 0)
(-0.00312719 0.278241 0)
(-0.000154191 0.264611 0)
(-0.00123833 0.260389 0)
(0.00107648 0.25956 0)
(-0.00129688 0.264307 0)
(-0.00160136 0.257506 0)
(-0.000823715 0.261482 0)
(-0.0023626 0.262992 0)
(-0.000939143 0.27532 0)
(-0.00200822 0.257582 0)
(-0.000417781 0.264593 0)
(0.00649447 0.264971 0)
(0.00909937 0.264338 0)
(0.0115356 0.284612 0)
(0.0066682 0.284558 0)
(0.00677994 0.282076 0)
(0.00699839 0.287405 0)
(0.00647424 0.281248 0)
(0.00623211 0.268617 0)
(0.00310988 0.268544 0)
(0.00415877 0.261485 0)
(0.0117078 0.264484 0)
(0.0177843 0.289074 0)
(0.0183123 0.292005 0)
(0.0158081 0.273961 0)
(0.0146254 0.262726 0)
(0.0185783 0.262543 0)
(0.0222182 0.27289 0)
(0.0253487 0.294061 0)
(0.0202317 0.303915 0)
(0.0205685 0.307296 0)
(0.017522 0.297321 0)
(0.0148891 0.275954 0)
(0.00896555 0.264005 0)
(0.0126877 0.256069 0)
(0.0193969 0.246606 0)
(0.0254029 0.247489 0)
(0.0303346 0.257486 0)
(0.0372032 0.285792 0)
(0.0343728 0.302017 0)
(0.0328392 0.310565 0)
(0.0303576 0.311248 0)
(0.0239801 0.31067 0)
(0.0194216 0.269847 0)
(0.00269322 0.233146 0)
(0.00403407 0.265196 0)
(-0.00562067 0.324082 0)
(-0.00811583 0.310748 0)
(-0.00499402 0.300247 0)
(0.00228028 0.285869 0)
(0.00171135 0.285069 0)
(0.00085706 0.267023 0)
(-0.00425543 0.261497 0)
(-0.00280423 0.279015 0)
(-0.00122307 0.299179 0)
(-0.00325215 0.0479029 0)
(-0.0042403 0.144044 0)
(0.00796428 0.28298 0)
(-0.027629 0.341296 0)
(-0.0738597 0.353513 0)
(-0.079207 0.312384 0)
(-0.0476757 0.287981 0)
(-0.0270547 0.289197 0)
(-0.0153375 0.307724 0)
(-0.00424324 0.318973 0)
(-0.00344615 0.320286 0)
(-0.00598992 0.267786 0)
(-0.0134328 0.275806 0)
(-0.0292597 0.312109 0)
(-0.0340579 0.321529 0)
(-0.0390288 0.312452 0)
(-0.0344403 0.302476 0)
(-0.0333303 0.285993 0)
(-0.0260588 0.264267 0)
(-0.0215965 0.259314 0)
(-0.0194381 0.250684 0)
(-0.0157546 0.261641 0)
(-0.0191037 0.28556 0)
(-0.0255407 0.299713 0)
(-0.025174 0.311862 0)
(-0.0258908 0.304452 0)
(-0.0283426 0.303459 0)
(-0.0294781 0.280861 0)
(-0.02262 0.260267 0)
(-0.0196793 0.252553 0)
(-0.0141172 0.257275 0)
(-0.0151168 0.27631 0)
(-0.0213765 0.289706 0)
(-0.0242283 0.302759 0)
(-0.021419 0.298236 0)
(-0.0157813 0.289695 0)
(-0.0179838 0.278872 0)
(-0.0135283 0.26768 0)
(-0.0124265 0.270572 0)
(-0.0137211 0.290538 0)
(-0.0171627 0.297848 0)
(-0.0121583 0.286917 0)
(-0.00730234 0.268385 0)
(-0.0044351 0.2673 0)
(0.00276043 0.289998 0)
(-0.00494363 0.291007 0)
(0.00206866 0.294003 0)
(-0.000728958 0.295411 0)
(0.000934011 0.297238 0)
(-0.00135413 0.295605 0)
(-0.00156143 0.297375 0)
(-0.000897953 0.29546 0)
(-0.00344929 0.29554 0)
(0.000447403 0.291724 0)
(-0.00465832 0.294502 0)
(-0.000113369 0.266757 0)
(0.00666948 0.267834 0)
(0.00949754 0.290059 0)
(0.0103502 0.292403 0)
(0.00734919 0.291616 0)
(0.00510387 0.290468 0)
(0.00850741 0.292039 0)
(0.0103462 0.289048 0)
(0.00792989 0.28266 0)
(0.00390058 0.272399 0)
(0.00543865 0.265997 0)
(0.0115797 0.266434 0)
(0.0171258 0.290652 0)
(0.019497 0.29454 0)
(0.0164296 0.279419 0)
(0.0155224 0.266836 0)
(0.0197398 0.264262 0)
(0.023013 0.281097 0)
(0.0252579 0.290055 0)
(0.0239633 0.300975 0)
(0.0250012 0.30015 0)
(0.0231272 0.301085 0)
(0.0189314 0.285076 0)
(0.0110166 0.265911 0)
(0.0147205 0.249494 0)
(0.0217192 0.242827 0)
(0.026198 0.253189 0)
(0.0324552 0.254678 0)
(0.0349751 0.282676 0)
(0.0315785 0.309244 0)
(0.0310643 0.310207 0)
(0.031323 0.320869 0)
(0.027219 0.306879 0)
(0.0180423 0.276112 0)
(0.000877355 0.244874 0)
(0.00440941 0.274567 0)
(-0.0030681 0.319625 0)
(-0.0056959 0.307227 0)
(-0.00184363 0.295591 0)
(0.00518707 0.294262 0)
(0.00344724 0.284544 0)
(0.00207801 0.275303 0)
(-0.00148903 0.269238 0)
(-0.00254515 0.283457 0)
(-0.00128292 0.29403 0)
(-0.00136169 0.0496027 0)
(-0.0046302 0.148725 0)
(0.00669829 0.297889 0)
(-0.0295044 0.368871 0)
(-0.0627284 0.360592 0)
(-0.0521574 0.299825 0)
(-0.0355799 0.276594 0)
(-0.0260812 0.293869 0)
(-0.0159718 0.295776 0)
(-0.0146447 0.317036 0)
(-0.00889109 0.329384 0)
(-0.00708086 0.275959 0)
(-0.0195426 0.289968 0)
(-0.0313706 0.321845 0)
(-0.0346298 0.328941 0)
(-0.0378269 0.314502 0)
(-0.0341006 0.297072 0)
(-0.0336947 0.278132 0)
(-0.026104 0.259116 0)
(-0.0224047 0.253783 0)
(-0.0203108 0.257534 0)
(-0.0202872 0.260026 0)
(-0.0250902 0.278526 0)
(-0.0291616 0.30246 0)
(-0.0285049 0.304149 0)
(-0.0281498 0.309702 0)
(-0.0288301 0.298162 0)
(-0.0270962 0.274592 0)
(-0.0226507 0.258211 0)
(-0.0202884 0.259691 0)
(-0.0156273 0.263865 0)
(-0.0192112 0.273635 0)
(-0.0244835 0.283577 0)
(-0.0245018 0.298187 0)
(-0.0209995 0.295745 0)
(-0.0163938 0.28576 0)
(-0.0177766 0.271573 0)
(-0.0130939 0.261884 0)
(-0.0138769 0.265226 0)
(-0.0145848 0.282444 0)
(-0.0175917 0.295714 0)
(-0.0127567 0.276958 0)
(-0.006607 0.265877 0)
(-0.00676099 0.265101 0)
(-0.00252382 0.266107 0)
(-0.00597378 0.281608 0)
(-0.00235431 0.268331 0)
(-0.00404127 0.26692 0)
(-5.20977e-05 0.265659 0)
(-0.00129884 0.27006 0)
(-0.000963965 0.263586 0)
(0.000719923 0.268004 0)
(-0.000589891 0.267896 0)
(0.0018814 0.279435 0)
(0.00142953 0.263058 0)
(0.00229092 0.264572 0)
(0.0048312 0.265106 0)
(0.00711671 0.269061 0)
(0.0113166 0.286966 0)
(0.00790879 0.28801 0)
(0.00550786 0.284033 0)
(0.0103293 0.287407 0)
(0.0126706 0.283345 0)
(0.0113295 0.271833 0)
(0.00633807 0.270237 0)
(0.00599606 0.260414 0)
(0.0116639 0.263442 0)
(0.0169744 0.287688 0)
(0.0198393 0.292656 0)
(0.0169441 0.276299 0)
(0.0163315 0.262473 0)
(0.0198581 0.261355 0)
(0.0224854 0.273576 0)
(0.0260361 0.295233 0)
(0.0249877 0.308752 0)
(0.0280885 0.310727 0)
(0.026782 0.303541 0)
(0.0238107 0.283556 0)
(0.0185529 0.25744 0)
(0.0186119 0.245726 0)
(0.0220437 0.248609 0)
(0.0270305 0.246338 0)
(0.0336113 0.258515 0)
(0.0325296 0.285426 0)
(0.0302869 0.306326 0)
(0.0319822 0.318211 0)
(0.0303671 0.321948 0)
(0.0250891 0.310092 0)
(0.0187504 0.290658 0)
(0.00253786 0.243645 0)
(-0.00077442 0.268506 0)
(0.00471313 0.313737 0)
(0.000507399 0.309909 0)
(0.000622408 0.28702 0)
(0.00629236 0.287299 0)
(0.0088616 0.283722 0)
(0.00754375 0.274205 0)
(0.00162498 0.270496 0)
(-0.000490629 0.280921 0)
(0.000300641 0.293489 0)
(-0.000603512 0.0539601 0)
(-0.00266819 0.146379 0)
(0.00321723 0.315223 0)
(-0.0293182 0.387162 0)
(-0.054214 0.36098 0)
(-0.0373328 0.295876 0)
(-0.0300484 0.282941 0)
(-0.024171 0.286264 0)
(-0.0188972 0.299999 0)
(-0.0200786 0.313816 0)
(-0.0136092 0.320989 0)
(-0.011073 0.281242 0)
(-0.0223338 0.296488 0)
(-0.0307138 0.325823 0)
(-0.0343151 0.325604 0)
(-0.0375143 0.306869 0)
(-0.0310511 0.292641 0)
(-0.0316268 0.275668 0)
(-0.0281522 0.253177 0)
(-0.0268257 0.248557 0)
(-0.0221741 0.252686 0)
(-0.0217512 0.262278 0)
(-0.0287261 0.288463 0)
(-0.0326348 0.296946 0)
(-0.0302189 0.308372 0)
(-0.0286371 0.307256 0)
(-0.0269748 0.29473 0)
(-0.0272759 0.280758 0)
(-0.0235918 0.25878 0)
(-0.02094 0.254286 0)
(-0.0154052 0.26054 0)
(-0.0187069 0.281205 0)
(-0.0251404 0.289371 0)
(-0.0269243 0.293763 0)
(-0.0206615 0.298327 0)
(-0.0149469 0.28845 0)
(-0.0167372 0.277078 0)
(-0.0135856 0.26051 0)
(-0.0146313 0.264414 0)
(-0.0153902 0.289845 0)
(-0.0177921 0.299671 0)
(-0.0115835 0.28383 0)
(-0.00662928 0.26723 0)
(-0.00666827 0.266233 0)
(-0.00176578 0.287974 0)
(-0.00708296 0.289749 0)
(0.000135811 0.291967 0)
(-0.00323076 0.293052 0)
(-3.47602e-05 0.295046 0)
(-0.00124733 0.293882 0)
(-0.00100594 0.295167 0)
(0.000178089 0.293313 0)
(-0.0020547 0.293554 0)
(0.00286934 0.290153 0)
(-0.000765485 0.292302 0)
(0.00231344 0.265684 0)
(0.00516264 0.266796 0)
(0.00717576 0.286752 0)
(0.0098741 0.291249 0)
(0.00841423 0.291659 0)
(0.00451313 0.288959 0)
(0.010694 0.289666 0)
(0.0151746 0.288007 0)
(0.0124497 0.283331 0)
(0.00801094 0.273174 0)
(0.00767835 0.258344 0)
(0.0110705 0.263679 0)
(0.0166032 0.290891 0)
(0.0201506 0.293882 0)
(0.0183726 0.279862 0)
(0.017063 0.259164 0)
(0.0199587 0.265236 0)
(0.0209852 0.278118 0)
(0.0233714 0.296771 0)
(0.0251757 0.303979 0)
(0.0302592 0.306485 0)
(0.0304539 0.299735 0)
(0.0278082 0.28888 0)
(0.0195059 0.271183 0)
(0.0199774 0.250144 0)
(0.0235131 0.242638 0)
(0.0285185 0.241225 0)
(0.0329545 0.256866 0)
(0.0310684 0.291651 0)
(0.0256051 0.303691 0)
(0.0305111 0.311696 0)
(0.0277216 0.3195 0)
(0.0244236 0.321863 0)
(0.0206772 0.29305 0)
(0.00501182 0.264138 0)
(-0.00207854 0.278131 0)
(0.00932604 0.322236 0)
(0.0131601 0.304086 0)
(0.0107634 0.285504 0)
(0.0122699 0.283869 0)
(0.0103351 0.287622 0)
(0.00973682 0.283172 0)
(0.00409528 0.278524 0)
(0.00119725 0.283439 0)
(0.000834086 0.2967 0)
(-0.000191569 0.0555719 0)
(-0.00298558 0.154426 0)
(0.000594593 0.324929 0)
(-0.0309509 0.404682 0)
(-0.0467382 0.361098 0)
(-0.0271094 0.288748 0)
(-0.0258048 0.282851 0)
(-0.023074 0.282416 0)
(-0.0217219 0.297175 0)
(-0.0251635 0.314828 0)
(-0.0195794 0.309423 0)
(-0.0131885 0.278178 0)
(-0.0225903 0.302855 0)
(-0.0285896 0.321042 0)
(-0.0339516 0.327029 0)
(-0.0349352 0.307585 0)
(-0.029979 0.298231 0)
(-0.0293062 0.280139 0)
(-0.0281396 0.25809 0)
(-0.0270218 0.256333 0)
(-0.0251859 0.248494 0)
(-0.0254534 0.267114 0)
(-0.0296321 0.283628 0)
(-0.0344149 0.300417 0)