/*--------------------------------*- C++ -*----------------------------------*\
| =========                 |                                                 |
| \\      /  F ield         | OpenFOAM: The Open Source CFD Toolbox           |
|  \\    /   O peration     | Version:  2312                                  |
|   \\  /    A nd           | Website:  www.openfoam.com                      |
|    \\/     M anipulation  |                                                 |
\*---------------------------------------------------------------------------*/
FoamFile
{
    version     2.0;
    format      ascii;
    arch        "LSB;label=32;scalar=64";
    class       volVectorField;
    location    "4";
    object      U.water;
}
// * * * * * * * * * * * * * * * * * * * * * * * * * * * * * * * * * * * * * //

dimensions      [0 1 -1 0 0 0 0];

internalField   nonuniform List<vector> 
50000
(
(0.0459926 -0.0765936 0)
(0.125616 -0.0740395 0)
(0.192905 -0.0526132 0)
(0.235837 -0.0516263 0)
(0.283276 -0.034791 0)
(0.271874 -0.0274051 0)
(0.229009 -0.0275041 0)
(0.154321 -0.0108929 0)
(0.0908406 -0.00383237 0)
(0.0439031 -0.0195077 0)
(-0.0007997 -0.0380465 0)
(-0.0167009 -0.0427816 0)
(0.0187022 -0.0438262 0)
(0.0469075 -0.0459413 0)
(0.036476 -0.0499956 0)
(0.005202 -0.0527279 0)
(-0.00438801 -0.0682396 0)
(-0.015252 -0.0821458 0)
(-0.026132 -0.0824225 0)
(-0.0242012 -0.0578403 0)
(-0.00199774 -0.0558534 0)
(0.00956044 -0.0597101 0)
(0.0223189 -0.0686315 0)
(0.0153468 -0.0828013 0)
(-0.0106051 -0.0718831 0)
(-0.0211907 -0.0726447 0)
(-0.0308252 -0.085725 0)
(-0.0461735 -0.0899813 0)
(-0.0477616 -0.067953 0)
(-0.0210907 -0.0567517 0)
(0.00324227 -0.0606855 0)
(0.0262275 -0.0664306 0)
(0.0302141 -0.108415 0)
(0.0115743 -0.0835874 0)
(-0.0122982 -0.0785816 0)
(-0.0245816 -0.0956202 0)
(-0.038934 -0.101784 0)
(-0.0269314 -0.0610993 0)
(0.022339 -0.0623069 0)
(0.0277954 -0.110644 0)
(-0.00406445 -0.0853414 0)
(-0.0231142 -0.10436 0)
(-0.0225007 -0.0738917 0)
(0.0229654 -0.0699108 0)
(0.0399821 -0.133678 0)
(0.0272786 -0.125665 0)
(0.0225097 -0.143051 0)
(0.0169162 -0.159203 0)
(0.00960009 -0.165638 0)
(0.000959663 -0.157163 0)
(-0.00666838 -0.166497 0)
(-0.0121685 -0.159363 0)
(-0.0199751 -0.15274 0)
(-0.0247305 -0.134393 0)
(-0.0384589 -0.145631 0)
(-0.0278011 -0.0707922 0)
(0.0268956 -0.0722623 0)
(0.0309299 -0.131665 0)
(0.0131214 -0.110969 0)
(-0.00159804 -0.10403 0)
(-0.0139622 -0.110665 0)
(-0.0214287 -0.0984052 0)
(-0.0398225 -0.101763 0)
(-0.0451558 -0.0922982 0)
(-0.0223083 -0.0641378 0)
(0.00477177 -0.0621532 0)
(0.0244605 -0.0871969 0)
(0.0191134 -0.0810054 0)
(-0.00841906 -0.0855576 0)
(-0.0121893 -0.0701459 0)
(0.00644819 -0.0597881 0)
(0.0366827 -0.0666499 0)
(0.0352589 -0.0933874 0)
(0.0197531 -0.087776 0)
(0.0116693 -0.0724901 0)
(0.000109491 -0.0723576 0)
(-0.0221526 -0.0815544 0)
(-0.0294942 -0.0746196 0)
(-0.0175713 -0.0652015 0)
(-0.011938 -0.0624679 0)
(0.00270393 -0.0550121 0)
(0.0256909 -0.0535525 0)
(0.0341023 -0.0752466 0)
(0.0301385 -0.0808497 0)
(0.0156185 -0.0734815 0)
(0.0120686 -0.0606577 0)
(-0.00677816 -0.0527874 0)
(-0.0284632 -0.0617363 0)
(-0.0203901 -0.0402246 0)
(0.0178935 -0.0437122 0)
(0.0562438 -0.0433021 0)
(0.0544158 -0.0483584 0)
(0.0361954 -0.048945 0)
(0.0228561 -0.0556521 0)
(0.0150862 -0.0629041 0)
(0.00496179 -0.0823203 0)
(0.00172565 -0.0671306 0)
(0.000561917 -0.0586732 0)
(0.00314415 -0.0625026 0)
(0.00397695 -0.0704961 0)
(0.0549517 -0.107332 0)
(0.0811546 -0.0811458 0)
(0.149998 -0.0469986 0)
(0.181849 -0.0328355 0)
(0.224274 0.0164774 0)
(0.221714 0.0624253 0)
(0.176499 0.0863212 0)
(0.115807 0.075485 0)
(0.0710477 0.063115 0)
(0.0358631 0.0569373 0)
(-0.0112536 0.0547098 0)
(-0.0127147 0.0133892 0)
(0.0148901 -0.0104706 0)
(0.0330708 0.0172302 0)
(0.0370494 0.0499278 0)
(0.0105314 0.0502374 0)
(-0.0120951 0.0562258 0)
(-0.035976 0.0691305 0)
(-0.0418232 0.0650881 0)
(-0.0233828 0.0272681 0)
(-0.00694162 0.0227451 0)
(0.00821702 0.0301783 0)
(0.0207168 0.0454666 0)
(0.0298609 0.070865 0)
(0.00672404 0.060083 0)
(-0.0266507 0.0566256 0)
(-0.0477989 0.0699557 0)
(-0.0562864 0.0738228 0)
(-0.0427009 0.0400992 0)
(-0.0200391 0.0239568 0)
(0.000589286 0.0290423 0)
(0.0170303 0.0393748 0)
(0.0387785 0.0910723 0)
(0.0289082 0.069009 0)
(-0.0182281 0.0624622 0)
(-0.044539 0.0781335 0)
(-0.0462285 0.080597 0)
(-0.0205085 0.0304167 0)
(0.0114926 0.0325231 0)
(0.0387502 0.093098 0)
(0.00416539 0.0696247 0)
(-0.0403891 0.0852579 0)
(-0.0136365 0.046681 0)
(0.00988711 0.0410431 0)
(0.0362335 0.112355 0)
(0.0277969 0.105357 0)
(0.00624072 0.12261 0)
(0.00521657 0.139267 0)
(0.00677356 0.145457 0)
(0.000341914 0.136666 0)
(-0.00594818 0.146118 0)
(-0.00683199 0.139233 0)
(-0.0067695 0.132451 0)
(-0.0227486 0.114151 0)
(-0.0339799 0.125914 0)
(-0.0146173 0.0418172 0)
(0.0184936 0.0439107 0)
(0.0371785 0.113236 0)
(0.0315643 0.0927685 0)
(0.00493672 0.0851531 0)
(-0.00994766 0.0911897 0)
(-0.023852 0.0798502 0)
(-0.0444745 0.0836183 0)
(-0.0374758 0.0679904 0)
(-0.0154177 0.034582 0)
(0.00359954 0.0323462 0)
(0.0337458 0.0626106 0)
(0.0283993 0.0653527 0)
(-0.0276683 0.0696306 0)
(-0.00796092 0.0457098 0)
(0.00920528 0.0272904 0)
(0.029869 0.0382089 0)
(0.0469204 0.0774269 0)
(0.040732 0.071717 0)
(0.0160095 0.0563356 0)
(-0.0163095 0.0606307 0)
(-0.034337 0.0687794 0)
(-0.0280314 0.0518903 0)
(-0.0165601 0.0379198 0)
(-0.00632147 0.033879 0)
(0.00855911 0.0196968 0)
(0.0264052 0.0202101 0)
(0.0452519 0.0512619 0)
(0.0468365 0.0677795 0)
(0.033624 0.0600551 0)
(0.00270551 0.0506627 0)
(-0.0190394 0.0517927 0)
(-0.0338281 0.0496389 0)
(-0.012892 -0.00742666 0)
(0.0168039 -0.0213047 0)
(0.0441976 0.000580657 0)
(0.0569813 0.0435333 0)
(0.0419413 0.0485243 0)
(0.02928 0.049063 0)
(0.00218077 0.0552646 0)
(-0.00960172 0.0712443 0)
(-0.00515102 0.0488895 0)
(0.00522723 0.0358926 0)
(0.0135338 0.0386501 0)
(0.0261109 0.0559579 0)
(0.0244805 -0.1859 0)
(0.0696979 -0.144633 0)
(0.107696 -0.114408 0)
(0.136041 -0.0925294 0)
(0.138797 -0.0402343 0)
(0.146075 0.0304238 0)
(0.110987 0.0684744 0)
(0.0759788 0.0794737 0)
(0.0445045 0.0653267 0)
(0.0101727 0.0560348 0)
(-0.0127388 0.0251707 0)
(-0.00265552 -0.0309044 0)
(0.00995677 -0.0440161 0)
(0.00953638 -0.0304687 0)
(-3.17549e-05 -0.00540393 0)
(-0.0100867 0.00346848 0)
(-0.0257955 -0.00929387 0)
(-0.028344 -0.0307695 0)
(-0.0213517 -0.0523779 0)
(-0.0135762 -0.0387683 0)
(-0.00767286 -0.0365804 0)
(0.00182474 -0.0368095 0)
(0.00938769 -0.0428551 0)
(0.00188086 -0.0395744 0)
(-0.00239505 -0.0127247 0)
(-0.0234016 -0.0176747 0)
(-0.0350598 -0.0374394 0)
(-0.0356114 -0.0564992 0)
(-0.0291437 -0.0433095 0)
(-0.0167783 -0.0364816 0)
(-0.00342273 -0.0378723 0)
(0.0103846 -0.0418775 0)
(0.00197479 -0.0777939 0)
(0.00794537 -0.0305344 0)
(-0.0154628 -0.0234692 0)
(-0.0285471 -0.0506835 0)
(-0.02099 -0.0691428 0)
(-0.0156563 -0.0389772 0)
(0.00185901 -0.0394232 0)
(-0.000817529 -0.0728195 0)
(-0.00323081 -0.0325682 0)
(-0.0249902 -0.0638304 0)
(-0.00801937 -0.0462838 0)
(0.00552295 -0.042936 0)
(0.0140339 -0.100821 0)
(0.00746065 -0.081406 0)
(0.00889107 -0.102257 0)
(0.00847238 -0.122517 0)
(0.00462961 -0.127163 0)
(-0.000625826 -0.11693 0)
(-0.00406395 -0.128144 0)
(-0.0071788 -0.121971 0)
(-0.00998733 -0.113011 0)
(-0.00816251 -0.09079 0)
(-0.013582 -0.113529 0)
(-0.0098964 -0.0436282 0)
(0.014572 -0.0449655 0)
(0.013872 -0.0992705 0)
(0.0142916 -0.0651926 0)
(0.00577618 -0.0570873 0)
(-0.00126634 -0.0656953 0)
(-0.00410477 -0.0525037 0)
(-0.0154354 -0.0610119 0)
(-0.0125637 -0.0632666 0)
(-0.00953356 -0.0400639 0)
(-0.0019903 -0.0395788 0)
(0.0121065 -0.0551366 0)
(0.0222258 -0.0279974 0)
(0.00320783 -0.0379632 0)
(0.00782868 -0.0457111 0)
(0.00847033 -0.0378984 0)
(0.0218598 -0.0426247 0)
(0.0225883 -0.0626022 0)
(0.0269995 -0.0388293 0)
(0.0145384 -0.0168394 0)
(-0.00527411 -0.0173495 0)
(-0.0102301 -0.0393468 0)
(-0.0174657 -0.0472861 0)
(-0.0117855 -0.0391769 0)
(0.00136046 -0.038619 0)
(0.0126999 -0.0370874 0)
(0.0206524 -0.0370133 0)
(0.0273846 -0.0484326 0)
(0.0332652 -0.0387841 0)
(0.0336545 -0.0133226 0)
(0.0184407 0.000669371 0)
(0.00684709 -0.000399963 0)
(0.000692022 -0.0321421 0)
(-0.00188304 -0.0422688 0)
(0.0143845 -0.054946 0)
(0.0249956 -0.0399346 0)
(0.0244756 -0.014218 0)
(0.0140784 0.00180643 0)
(0.00939682 0.00828778 0)
(-0.00265886 0.00317753 0)
(-0.00148515 -0.0420353 0)
(-0.000987591 -0.0436453 0)
(0.0216669 -0.0409051 0)
(0.00723737 -0.0535696 0)
(0.00357315 0.00719125 0)
(0.0139631 -0.217405 0)
(0.0367781 -0.163713 0)
(0.04079 -0.110633 0)
(0.0316471 -0.063403 0)
(0.00578238 0.0147882 0)
(0.0116563 0.0888179 0)
(-0.00803046 0.115384 0)
(0.00691091 0.0923974 0)
(-0.00261197 0.0913275 0)
(-0.00104184 0.0727747 0)
(-0.0117346 0.0453862 0)
(-0.00296992 -0.0138654 0)
(0.00678355 -0.0309744 0)
(0.00352305 0.00951817 0)
(-0.0117282 0.0394775 0)
(-0.0186724 0.0406762 0)
(-0.0245228 0.0383475 0)
(-0.025846 0.0401433 0)
(-0.0246566 0.0324769 0)
(-0.017978 0.000648359 0)
(-0.0094254 -0.00267992 0)
(0.00199344 0.00223418 0)
(0.011999 0.0230689 0)
(0.00630294 0.0451353 0)
(-0.00983671 0.0375273 0)
(-0.0199092 0.0379099 0)
(-0.03355 0.0428233 0)
(-0.0388146 0.04739 0)
(-0.0313008 0.0116592 0)
(-0.0185991 -0.00180105 0)
(-0.00389031 0.00218773 0)
(0.00672808 0.0160505 0)
(0.0169347 0.0660005 0)
(-0.000781841 0.0408078 0)
(-0.0160066 0.038326 0)
(-0.0260468 0.0482495 0)
(-0.0318238 0.0498108 0)
(-0.0166239 0.00606352 0)
(-0.000214804 0.00876772 0)
(0.0159289 0.0647249 0)
(-0.00784481 0.0413022 0)
(-0.0238252 0.0563455 0)
(-0.0113905 0.0185599 0)
(0.00389824 0.014979 0)
(0.0263198 0.0849241 0)
(0.0114126 0.0713914 0)
(0.0063279 0.091367 0)
(0.00712646 0.109594 0)
(0.00378357 0.113795 0)
(-0.000607572 0.103772 0)
(-0.00407771 0.114775 0)
(-0.00731897 0.108866 0)
(-0.00638903 0.101289 0)
(-0.0130885 0.079958 0)
(-0.026756 0.100637 0)
(-0.00778438 0.0147644 0)
(0.0129947 0.0171838 0)
(0.0285692 0.0872103 0)
(0.0152027 0.059964 0)
(0.00715715 0.0539021 0)
(0.00842806 0.0590645 0)
(-0.00444779 0.0491021 0)
(-0.0154926 0.0542579 0)
(-0.0169631 0.0426319 0)
(-0.00667807 0.0119794 0)
(0.00294701 0.00706417 0)
(0.0170254 0.0291967 0)
(0.0218084 0.0382199 0)
(0.00921802 0.04194 0)
(0.00281264 0.0228296 0)
(0.0114425 0.00347031 0)
(0.0238633 0.0119954 0)
(0.0293661 0.051491 0)
(0.0236234 0.0435438 0)
(0.0126438 0.0375589 0)
(0.00548325 0.0382289 0)
(-0.0125949 0.0434494 0)
(-0.0188495 0.029323 0)
(-0.00986744 0.00778654 0)
(0.000573861 0.00224578 0)
(0.0137113 -0.00727263 0)
(0.0238715 -0.00554861 0)
(0.0336782 0.0199351 0)
(0.0325206 0.0398486 0)
(0.0303225 0.0391225 0)
(0.0206612 0.0392521 0)
(0.0198429 0.0387467 0)
(-3.8283e-05 0.0322821 0)
(-0.000783134 -0.0310789 0)
(0.0102564 -0.0524207 0)
(0.0222688 -0.0200667 0)
(0.014221 0.0322218 0)
(0.00018999 0.0384447 0)
(-0.00039009 0.0373316 0)
(-0.00227857 0.0386901 0)
(0.00177152 0.0458204 0)
(-0.00316396 0.00420199 0)
(0.00493419 0.00404038 0)
(0.00199974 0.0430278 0)
(-0.000572312 0.0362707 0)
(0.00669047 -0.23658 0)
(0.0123755 -0.161498 0)
(0.00262343 -0.10464 0)
(-0.0454831 -0.0624874 0)
(-0.093978 0.0196716 0)
(-0.0906392 0.0815236 0)
(-0.0560788 0.0972591 0)
(-0.0285202 0.0815024 0)
(-0.0213414 0.0732921 0)
(-0.00404326 0.0688444 0)
(-0.00879661 0.0365634 0)
(-0.0014006 -0.0321015 0)
(0.00215376 -0.0388984 0)
(-0.0229131 -0.0079655 0)
(-0.0281218 0.0215242 0)
(-0.0318311 0.0221863 0)
(-0.0320138 0.0120195 0)
(-0.0342222 -0.0120494 0)
(-0.0217173 -0.0326306 0)
(-0.0115529 -0.0300613 0)
(-0.010963 -0.0303364 0)
(-0.00373181 -0.0288928 0)
(-0.00497401 -0.0270721 0)
(-0.00633754 -0.00762708 0)
(-0.0111099 0.0139612 0)
(-0.0226688 0.0109879 0)
(-0.0330281 -0.00763461 0)
(-0.0325879 -0.0356134 0)
(-0.0220708 -0.0306402 0)
(-0.0160481 -0.0291733 0)
(-0.0078136 -0.0289525 0)
(-0.00697997 -0.0296426 0)
(-0.0129471 -0.0514732 0)
(-0.00600136 0.000596584 0)
(-0.0188904 0.00489576 0)
(-0.0238032 -0.0218451 0)
(-0.0164511 -0.0458809 0)
(-0.0115777 -0.0288201 0)
(-0.00944215 -0.0286966 0)
(-0.00758006 -0.0455452 0)
(-0.010289 -0.0023549 0)
(-0.0187242 -0.0377219 0)
(-0.00716968 -0.0308684 0)
(-0.00113892 -0.0290657 0)
(0.000559791 -0.0765544 0)
(0.000564225 -0.0477953 0)
(0.00228201 -0.0735697 0)
(0.00168249 -0.0928891 0)
(0.00282104 -0.0955162 0)
(-0.00119376 -0.0845913 0)
(-0.00279517 -0.0973871 0)
(-0.00323476 -0.0915172 0)
(-0.00474017 -0.0831817 0)
(-0.0030361 -0.0568905 0)
(0.000187989 -0.0894684 0)
(-0.00321584 -0.0294288 0)
(0.00811244 -0.0303627 0)
(0.00702326 -0.0754063 0)
(0.0110341 -0.0331648 0)
(0.00648594 -0.0283795 0)
(0.00929751 -0.0347396 0)
(0.00224865 -0.0208996 0)
(-0.00100135 -0.0322511 0)
(0.00509936 -0.044472 0)
(-0.000179612 -0.0276769 0)
(-0.000783299 -0.0285304 0)
(0.0119981 -0.0349848 0)
(0.0206454 -0.00459414 0)
(0.0159648 -0.00925003 0)
(0.0158013 -0.0284638 0)
(0.0115386 -0.0281976 0)
(0.0165975 -0.0297938 0)
(0.0226079 -0.0406206 0)
(0.0251271 -0.00956372 0)
(0.0162864 0.00984127 0)
(0.00876762 0.0137063 0)
(-0.001273 -0.00651038 0)
(-0.000408331 -0.0297088 0)
(-0.00358439 -0.0287863 0)
(0.00628101 -0.0317059 0)
(0.0166224 -0.0333209 0)
(0.0185196 -0.0316022 0)
(0.0267804 -0.0323728 0)
(0.0361262 -0.017694 0)
(0.0356519 0.0116397 0)
(0.0298085 0.0228331 0)
(0.0241947 0.0248765 0)
(0.0241777 0.00166198 0)
(0.0133412 -0.0407254 0)
(0.00738208 -0.064133 0)
(0.00638853 -0.0327957 0)
(-0.00437245 0.0197027 0)
(-0.00938626 0.0250805 0)
(-0.00909648 0.0239252 0)
(-0.0108689 0.0150129 0)
(-0.00552664 -0.0228745 0)
(0.000148699 -0.0295167 0)
(-0.00188737 -0.0296971 0)
(0.00409846 -0.0317372 0)
(0.000679219 0.0244735 0)
(0.00121228 -0.242106 0)
(0.000246487 -0.158886 0)
(-0.00942147 -0.0638659 0)
(-0.0717904 -0.00893189 0)
(-0.112331 0.0396444 0)
(-0.118834 0.0659499 0)
(-0.0647702 0.0695172 0)
(-0.0384635 0.0595641 0)
(-0.0247963 0.0686321 0)
(-0.00360346 0.0566934 0)
(-0.00383705 0.040838 0)
(1.663e-06 -0.0273591 0)
(-0.00285493 -0.0259442 0)
(-0.023931 0.0186004 0)
(-0.0324535 0.0349249 0)
(-0.0374619 0.0316242 0)
(-0.0335335 0.0270294 0)
(-0.0283562 0.0224941 0)
(-0.0240695 0.00410464 0)
(-0.0188791 -0.0157551 0)
(-0.0131468 -0.0171292 0)
(-0.00529808 -0.0128407 0)
(-0.00131645 0.0111442 0)
(-0.0133253 0.0293706 0)
(-0.0181061 0.0316712 0)
(-0.0203032 0.0295199 0)
(-0.0277354 0.027989 0)
(-0.0312072 0.0268901 0)
(-0.0248384 -0.00704515 0)
(-0.0190899 -0.0163191 0)
(-0.0087706 -0.0121424 0)
(-0.00347646 0.00436165 0)
(-0.0084185 0.0429428 0)
(-0.0177994 0.0256846 0)
(-0.0187708 0.0260519 0)
(-0.0162971 0.0282256 0)
(-0.02202 0.0266492 0)
(-0.014528 -0.00771605 0)
(-0.00743645 -0.00466731 0)
(-0.00435117 0.0422489 0)
(-0.0145958 0.026378 0)
(-0.0142497 0.0353557 0)
(-0.00926842 0.000877773 0)
(0.000210942 -0.00147762 0)
(0.0181361 0.0621734 0)
(0.000798049 0.0450279 0)
(0.00754191 0.0667254 0)
(0.00592025 0.0825505 0)
(0.00114013 0.0857292 0)
(-0.00189453 0.0756497 0)
(-0.00106759 0.0874113 0)
(-0.00353626 0.081255 0)
(-0.00687677 0.0752126 0)
(-0.00606559 0.0525768 0)
(-0.0216522 0.0779476 0)
(-0.00441723 -0.00196622 0)
(0.0097591 0.000129162 0)
(0.020552 0.0642485 0)
(0.0101749 0.036741 0)
(0.00565109 0.0324479 0)
(0.00797206 0.036117 0)
(0.0023926 0.0293419 0)
(0.00156916 0.0324052 0)
(-0.000765724 0.0259491 0)
(-0.0015283 -5.85651e-06 0)
(0.00391113 -0.00807221 0)
(0.0121241 0.00544129 0)
(0.0185231 0.0225955 0)
(0.0184981 0.0254705 0)
(0.0126589 0.0105336 0)
(0.0132547 -0.00939086 0)
(0.0207649 -0.00466037 0)
(0.0226275 0.0302056 0)
(0.0208513 0.0278878 0)
(0.0163514 0.0278193 0)
(0.016742 0.0289657 0)
(0.00895327 0.0288477 0)
(-0.00400831 0.0159127 0)
(-0.00052059 -0.00863202 0)
(0.00799963 -0.0181007 0)
(0.0176738 -0.0230825 0)
(0.0236702 -0.0211419 0)
(0.0319079 -0.00401958 0)
(0.0304032 0.0214264 0)
(0.0298153 0.0304072 0)
(0.0316883 0.0335791 0)
(0.0307469 0.0346415 0)
(0.0272652 0.026158 0)
(0.0153757 -0.0259129 0)
(0.0039575 -0.0558888 0)
(0.00295192 -0.0151705 0)
(-0.0106921 0.032935 0)
(-0.0109389 0.0327809 0)
(-0.00876918 0.0286608 0)
(-0.0043748 0.0256187 0)
(-0.00265755 0.0225079 0)
(-0.00537118 -0.0109409 0)
(-0.00241314 -0.0112156 0)
(-0.00638681 0.0272081 0)
(-0.006015 0.0293022 0)
(-0.00140764 -0.242549 0)
(-0.0043156 -0.145701 0)
(-0.0224097 -0.0481597 0)
(-0.0734478 0.0148462 0)
(-0.102421 0.0490327 0)
(-0.10687 0.0586526 0)
(-0.0667444 0.0398988 0)
(-0.0405632 0.0503676 0)
(-0.0224712 0.0486216 0)
(-0.000607087 0.0539361 0)
(0.00525914 0.0364038 0)
(-0.00175489 -0.0290645 0)
(-0.0133831 -0.0224984 0)
(-0.0334967 0.0151281 0)
(-0.0351726 0.0366183 0)
(-0.0383331 0.0331438 0)
(-0.0371949 0.0139311 0)
(-0.0379687 -0.00815329 0)
(-0.025174 -0.0246832 0)
(-0.0173662 -0.0278314 0)
(-0.015606 -0.0295784 0)
(-0.0110913 -0.0257383 0)
(-0.016719 -0.0157442 0)
(-0.0180902 0.0108805 0)
(-0.0201959 0.0238392 0)
(-0.0236636 0.0223795 0)
(-0.0308153 0.00716166 0)
(-0.0303113 -0.0227069 0)
(-0.0197922 -0.025432 0)
(-0.0182831 -0.0272191 0)
(-0.0126196 -0.02601 0)
(-0.0186421 -0.0215059 0)
(-0.0220572 -0.0281093 0)
(-0.0177924 0.0129365 0)
(-0.0211461 0.0139254 0)
(-0.0189806 -0.00750149 0)
(-0.0146797 -0.0306565 0)
(-0.0112316 -0.0238039 0)
(-0.0147096 -0.0226005 0)
(-0.0128485 -0.0261319 0)
(-0.0150595 0.00945681 0)
(-0.0136454 -0.0232745 0)
(-0.00679801 -0.0229563 0)
(-0.00538042 -0.0224033 0)
(-0.00574935 -0.0587126 0)
(-0.00383961 -0.026768 0)
(-0.00290726 -0.0553188 0)
(-0.00309877 -0.06915 0)
(0.00116659 -0.0706548 0)
(-0.00108134 -0.0605945 0)
(-0.00162573 -0.0739567 0)
(-0.000330954 -0.0671751 0)
(-0.000936609 -0.0617837 0)
(3.43554e-05 -0.0344511 0)
(0.00700321 -0.0707378 0)
(0.000948923 -0.0227674 0)
(0.00512448 -0.0231203 0)
(0.00394676 -0.0558909 0)
(0.0114257 -0.0138772 0)
(0.00616903 -0.0122509 0)
(0.00950164 -0.0166375 0)
(0.00704814 -0.00469697 0)
(0.00704271 -0.0158653 0)
(0.01011 -0.0321305 0)
(0.00509352 -0.0200782 0)
(0.00269486 -0.023879 0)
(0.0110793 -0.0249259 0)
(0.0183967 0.00303588 0)
(0.0195418 0.00352618 0)
(0.0184123 -0.0176143 0)
(0.014538 -0.0228087 0)
(0.0162325 -0.0237703 0)
(0.0239441 -0.0256518 0)
(0.0270492 0.00379158 0)
(0.0205753 0.019295 0)
(0.0191855 0.023109 0)
(0.0143663 0.0126368 0)
(0.013156 -0.016513 0)
(0.00749065 -0.024767 0)
(0.0129791 -0.0322011 0)
(0.0192889 -0.0344399 0)
(0.0224615 -0.0316487 0)
(0.030402 -0.0260889 0)
(0.0371312 -0.00605255 0)
(0.0346793 0.0157471 0)
(0.0353516 0.0285351 0)
(0.0338183 0.0307826 0)
(0.0302871 0.0191332 0)
(0.0227445 -0.0232145 0)
(0.00249043 -0.0545688 0)
(-0.000309723 -0.0196066 0)
(-0.0126873 0.0321017 0)
(-0.0117211 0.0281287 0)
(-0.0100989 0.0241404 0)
(-0.00613846 0.0154078 0)
(0.00209758 -0.0132756 0)
(-0.00312908 -0.0228887 0)
(-0.010154 -0.0225076 0)
(-0.00521785 -0.0154103 0)
(-0.00470663 0.0171803 0)
(-0.00247513 -0.237247 0)
(-0.00423594 -0.139323 0)
(-0.016627 -0.0110841 0)
(-0.0647026 0.0393436 0)
(-0.0868029 0.0632369 0)
(-0.0801967 0.0493212 0)
(-0.0549139 0.0240562 0)
(-0.0423005 0.0246488 0)
(-0.0132852 0.0383538 0)
(0.0047618 0.0383468 0)
(0.00771879 0.0385617 0)
(-0.00191244 -0.0182768 0)
(-0.0130005 -0.00977336 0)
(-0.0362699 0.0276125 0)
(-0.0398769 0.0354506 0)
(-0.0383383 0.0270811 0)
(-0.0324043 0.0233666 0)
(-0.0333695 0.0110647 0)
(-0.0266134 -0.013823 0)
(-0.0235307 -0.0253987 0)
(-0.0184224 -0.0237549 0)
(-0.0133879 -0.0189793 0)
(-0.0197566 0.00827965 0)
(-0.0252851 0.0235992 0)
(-0.0254646 0.0287628 0)
(-0.0238142 0.0282637 0)
(-0.0266611 0.022653 0)
(-0.029686 0.0130009 0)
(-0.022764 -0.0164896 0)
(-0.0203732 -0.0225254 0)
(-0.0127534 -0.0172669 0)
(-0.0122209 0.000960095 0)
(-0.0247271 0.0264654 0)
(-0.0259583 0.0188454 0)
(-0.019762 0.0204661 0)
(-0.0131875 0.0176462 0)
(-0.0176548 0.0127974 0)
(-0.0140431 -0.0131477 0)
(-0.0119353 -0.00995471 0)
(-0.0155872 0.0277325 0)
(-0.0179135 0.0203496 0)
(-0.0100533 0.0227924 0)
(-0.00757003 -0.00766813 0)
(-0.00330489 -0.00964368 0)
(0.0110601 0.0460829 0)
(-0.00506442 0.0288815 0)
(0.00727466 0.0504553 0)
(0.00333231 0.0616468 0)
(0.000657317 0.0652818 0)
(-0.00174214 0.0562626 0)
(-0.000488708 0.0676456 0)
(-0.00143875 0.0602092 0)
(-0.00597756 0.0567733 0)
(-0.000987619 0.0348151 0)
(-0.0156515 0.0605162 0)
(-0.00114325 -0.0101524 0)
(0.00764716 -0.00834402 0)
(0.0144777 0.0459696 0)
(0.00936228 0.0239493 0)
(0.00652587 0.020956 0)
(0.00510808 0.0230558 0)
(0.00796636 0.0192805 0)
(0.0100477 0.0203069 0)
(0.00596208 0.0171412 0)
(0.00270045 -0.00488335 0)
(0.00564997 -0.0147131 0)
(0.0108023 -0.00771927 0)
(0.016504 0.0146724 0)
(0.0207723 0.0181163 0)
(0.0165521 0.00480785 0)
(0.0155128 -0.0146784 0)
(0.0199249 -0.0132385 0)
(0.0215114 0.015044 0)
(0.0236695 0.0210672 0)
(0.0211281 0.0255012 0)
(0.0231818 0.0278269 0)
(0.0235097 0.0238881 0)
(0.0166919 0.0112469 0)
(0.0122706 -0.0150681 0)
(0.0141063 -0.0285543 0)
(0.0206083 -0.0307829 0)
(0.0270404 -0.0311281 0)
(0.0325537 -0.0176475 0)
(0.0390969 0.012368 0)
(0.0359335 0.0264705 0)
(0.0351977 0.0304962 0)
(0.033511 0.0344264 0)
(0.028989 0.0296714 0)
(0.0207834 -0.0111043 0)
(-0.000294783 -0.0441547 0)
(0.000469442 -0.00495873 0)
(-0.0118364 0.0401283 0)
(-0.00755604 0.0300255 0)
(-0.00788648 0.0203517 0)
(0.0063987 0.0127474 0)
(0.00746029 0.0127649 0)
(-0.00136987 -0.00340934 0)
(-0.00296321 -0.0152728 0)
(-0.00285726 0.01439 0)
(-0.00479894 0.0143484 0)
(-0.00137679 -0.235327 0)
(-0.00451811 -0.134579 0)
(-0.00803938 -0.00084032 0)
(-0.0478152 0.0639992 0)
(-0.0681925 0.0776463 0)
(-0.0586076 0.0355867 0)
(-0.0426297 0.0148588 0)
(-0.0238536 0.0191292 0)
(-0.0083036 0.00960015 0)
(0.00109235 0.0375968 0)
(0.00346301 0.0411015 0)
(-0.0109344 -0.0153945 0)
(-0.0202712 0.000532614 0)
(-0.0331563 0.0313254 0)
(-0.0378138 0.0372617 0)
(-0.0441154 0.0261563 0)
(-0.0387444 0.0140958 0)
(-0.0339571 -0.00713649 0)
(-0.0262511 -0.0241113 0)
(-0.0238913 -0.0286141 0)
(-0.0233877 -0.0311137 0)
(-0.0206853 -0.0208597 0)
(-0.0278665 -0.00695789 0)
(-0.0296941 0.0162127 0)
(-0.0278723 0.0254945 0)
(-0.0260294 0.0252851 0)
(-0.0288844 0.0137767 0)
(-0.0298489 -0.015497 0)
(-0.020604 -0.0246468 0)
(-0.020267 -0.0272105 0)
(-0.0160958 -0.0248452 0)
(-0.0215104 -0.0145054 0)
(-0.0225811 -0.0119023 0)
(-0.0247764 0.0149781 0)
(-0.0234904 0.0146727 0)
(-0.0165795 -0.00144449 0)
(-0.0148569 -0.0212268 0)
(-0.0118599 -0.0216118 0)
(-0.0165564 -0.0189209 0)
(-0.0167967 -0.0134101 0)
(-0.0174207 0.012336 0)
(-0.0121832 -0.0164292 0)
(-0.00621864 -0.01922 0)
(-0.00813078 -0.0194561 0)
(-0.00875573 -0.0448943 0)
(-0.0062846 -0.0142756 0)
(-0.00649646 -0.0430071 0)
(-0.00656652 -0.0509109 0)
(9.03878e-05 -0.0532918 0)
(-0.00111015 -0.0436876 0)
(-0.00108586 -0.0574761 0)
(0.00192176 -0.0487693 0)
(0.00173842 -0.0465754 0)
(0.00253647 -0.0202871 0)
(0.00905933 -0.0556133 0)
(0.00369392 -0.0199325 0)
(0.00350929 -0.0198821 0)
(0.00315395 -0.04071 0)
(0.0124028 -0.00359913 0)
(0.00765058 -0.00285567 0)
(0.00743903 -0.00727436 0)
(0.0109236 0.00144174 0)
(0.01254 -0.00691485 0)
(0.0136588 -0.0242066 0)
(0.00835595 -0.0157649 0)
(0.00598127 -0.0226127 0)
(0.0107676 -0.0210403 0)
(0.0168086 0.00445092 0)
(0.0203891 0.00819028 0)
(0.0193652 -0.0111844 0)
(0.0167135 -0.0204011 0)
(0.0177788 -0.0215726 0)
(0.0202477 -0.0175123 0)
(0.0263357 0.00926779 0)
(0.0248872 0.0221566 0)
(0.0278923 0.0238739 0)
(0.0270327 0.0188894 0)
(0.0295299 -0.00574792 0)
(0.0174621 -0.0207788 0)
(0.0193352 -0.0313667 0)
(0.0240953 -0.0381824 0)
(0.0267278 -0.0346353 0)
(0.0305414 -0.0280321 0)
(0.0369309 -0.00305301 0)
(0.0351568 0.0236004 0)
(0.0329086 0.0312059 0)
(0.0315747 0.0382799 0)
(0.0281867 0.0279633 0)
(0.0242554 -0.00277674 0)
(0.000336542 -0.0408782 0)
(-0.000512815 -0.0103017 0)
(-0.00577269 0.0377485 0)
(-0.00699744 0.0265489 0)
(-0.000157031 0.015878 0)
(0.00729484 0.0035749 0)
(0.0032185 -0.000732576 0)
(0.00783011 -0.0118451 0)
(-0.0029605 -0.0178117 0)
(-0.00333346 -0.00906165 0)
(0.00199321 0.0137598 0)
(-0.00184054 -0.230897 0)
(-0.00358593 -0.133189 0)
(-0.00663472 0.0241158 0)
(-0.0422957 0.0829331 0)
(-0.0577458 0.0892428 0)
(-0.0386468 0.0285392 0)
(-0.0240487 0.000995845 0)
(-0.0149971 -0.00328989 0)
(-0.0117541 0.0197396 0)
(-0.0137562 0.0306828 0)
(-0.00633502 0.0472436 0)
(-0.00944783 -0.00436454 0)
(-0.024728 0.00274617 0)
(-0.0346559 0.0369597 0)
(-0.0356555 0.0452321 0)
(-0.03987 0.0314206 0)
(-0.035467 0.0170553 0)
(-0.0342204 0.00163466 0)
(-0.028582 -0.0214407 0)
(-0.0247706 -0.0273693 0)
(-0.0234536 -0.027963 0)
(-0.0241385 -0.0197104 0)
(-0.0262179 0.00912944 0)
(-0.0326056 0.0212232 0)
(-0.0295148 0.0262931 0)
(-0.027514 0.0261923 0)
(-0.0269993 0.0211726 0)
(-0.0253589 0.00432393 0)
(-0.0225058 -0.0215854 0)
(-0.0200456 -0.0264944 0)
(-0.0169608 -0.0205966 0)
(-0.0192436 -0.000250916 0)
(-0.0273866 0.0171766 0)
(-0.0291253 0.0188303 0)
(-0.0211592 0.0164845 0)
(-0.0127001 0.011568 0)
(-0.0177339 0.0046113 0)
(-0.0141132 -0.0151503 0)
(-0.0134769 -0.0115067 0)
(-0.0172075 0.0189755 0)
(-0.0190234 0.0173495 0)
(-0.00876626 0.0144238 0)
(-0.00653218 -0.0115951 0)
(-0.00583881 -0.0133798 0)
(0.00504717 0.0343612 0)
(-0.00774809 0.019834 0)
(0.00584932 0.0394523 0)
(0.000232242 0.0461619 0)
(0.000819951 0.0508789 0)
(-0.00142249 0.0426411 0)
(-0.0014599 0.0534696 0)
(-0.000890176 0.044969 0)
(-0.00499766 0.0438939 0)
(0.00261859 0.0240181 0)
(-0.00932847 0.0473675 0)
(0.00142288 -0.0139395 0)
(0.00611047 -0.0122363 0)
(0.00999778 0.031334 0)
(0.00893409 0.0168605 0)
(0.00838618 0.0153171 0)
(0.00229706 0.0155378 0)
(0.0108105 0.0137865 0)
(0.0166529 0.0138151 0)
(0.0112049 0.0131008 0)
(0.00589301 -0.00635076 0)
(0.00761944 -0.0174402 0)
(0.0112521 -0.0145364 0)
(0.016016 0.00995707 0)
(0.0210644 0.0145418 0)
(0.0176843 0.00226171 0)
(0.0171146 -0.0168746 0)
(0.0208547 -0.0166981 0)
(0.023859 0.00540248 0)
(0.0252826 0.016183 0)
(0.0267148 0.0224412 0)
(0.0286879 0.0263834 0)
(0.0301681 0.0216518 0)
(0.0261351 0.0106084 0)
(0.018888 -0.0121294 0)
(0.0207383 -0.0341552 0)
(0.0232285 -0.0363158 0)
(0.0272975 -0.0344407 0)
(0.0330428 -0.0252265 0)
(0.0311284 0.00641263 0)
(0.0287148 0.025718 0)
(0.0310354 0.0326265 0)
(0.0321745 0.0364464 0)
(0.0299584 0.03281 0)
(0.0192048 0.00456137 0)
(0.00109956 -0.0290158 0)
(0.000622942 -0.00363058 0)
(0.0023842 0.0431633 0)
(-0.00326471 0.0242863 0)
(0.00626556 0.00562647 0)
(0.0101393 0.0110554 0)
(0.0103838 0.00832324 0)
(0.00823247 0.00173503 0)
(0.0049959 -0.00612635 0)
(-0.000358746 0.00525012 0)
(0.000403946 0.0110205 0)
(-0.00170389 -0.229302 0)
(-0.00356826 -0.130328 0)
(-0.00363691 0.031433 0)
(-0.0318948 0.105672 0)
(-0.045853 0.0881555 0)
(-0.0224025 0.0149898 0)
(-0.0217343 -0.00485164 0)
(-0.0217494 0.00957799 0)
(-0.0174768 0.00868242 0)
(-0.0243843 0.0339584 0)
(-0.0170486 0.0362808 0)
(-0.0110636 -0.00549658 0)
(-0.0271009 0.0171849 0)
(-0.0352918 0.0393909 0)
(-0.0362085 0.0401197 0)
(-0.0374746 0.0259564 0)
(-0.0313023 0.0125709 0)
(-0.0323958 -0.00770578 0)
(-0.0280962 -0.0269321 0)
(-0.0277814 -0.0308721 0)
(-0.0234798 -0.0285981 0)
(-0.0264676 -0.019457 0)
(-0.0344958 -0.00130313 0)
(-0.0346727 0.0184392 0)
(-0.0317845 0.0248044 0)
(-0.0313592 0.0268015 0)
(-0.0273359 0.0151644 0)
(-0.0230821 -0.0120503 0)
(-0.0229103 -0.0248051 0)
(-0.020989 -0.0261441 0)
(-0.0179675 -0.0219686 0)
(-0.025228 -0.00960907 0)
(-0.0290907 -0.00212281 0)
(-0.0267637 0.0144423 0)
(-0.0199393 0.0122653 0)
(-0.0167022 0.00102802 0)
(-0.0169483 -0.0155845 0)
(-0.0128569 -0.0206047 0)
(-0.0163497 -0.0164952 0)
(-0.0160566 -0.00532559 0)
(-0.0179836 0.0123879 0)
(-0.0132962 -0.0130128 0)
(-0.00563588 -0.0175244 0)
(-0.00972777 -0.0181219 0)
(-0.010126 -0.0346912 0)
(-0.00745243 -0.00751306 0)
(-0.00859589 -0.0347028 0)
(-0.00876216 -0.0376823 0)
(-0.0015442 -0.0415277 0)
(-0.0011159 -0.0321123 0)
(5.74591e-05 -0.0455166 0)
(0.00311212 -0.0356999 0)
(0.00350925 -0.0363382 0)
(0.00410185 -0.0119917 0)
(0.010178 -0.0439919 0)
(0.00550221 -0.0186023 0)
(0.00265088 -0.0183288 0)
(0.00349257 -0.0293528 0)
(0.0123103 0.00114791 0)
(0.00878433 0.00331584 0)
(0.00590828 -0.00266644 0)
(0.0129706 0.00207139 0)
(0.0163202 -0.00255137 0)
(0.0165034 -0.0185396 0)
(0.01052 -0.0129397 0)
(0.00837832 -0.0222362 0)
(0.0114211 -0.0202497 0)
(0.0165455 0.00371153 0)
(0.020317 0.00961105 0)
(0.0181721 -0.0075176 0)
(0.0178774 -0.0196371 0)
(0.0200011 -0.0220239 0)
(0.0213643 -0.0139465 0)
(0.0257761 0.0111091 0)
(0.0265832 0.0232929 0)
(0.0314778 0.0252179 0)
(0.0314955 0.0205956 0)
(0.0322493 0.00193563 0)
(0.0249558 -0.0172354 0)
(0.0218385 -0.0328119 0)
(0.0232756 -0.0388228 0)
(0.0284061 -0.0395205 0)
(0.0336175 -0.0279775 0)
(0.0303199 0.00125885 0)
(0.0265981 0.0243872 0)
(0.0324265 0.0289063 0)
(0.0299134 0.0367201 0)
(0.0252028 0.0400468 0)
(0.0204069 0.0167526 0)
(0.00705432 -0.0280144 0)
(-0.00454053 -0.00990923 0)
(0.0088253 0.0454483 0)
(0.0124529 0.025994 0)
(0.0105577 0.00527353 0)
(0.0132142 0.000997894 0)
(0.0149473 0.00296133 0)
(0.0141085 -0.00522793 0)
(0.0074825 -0.00887426 0)
(0.00347948 -0.00193493 0)
(0.00174905 0.0136692 0)
(-0.00180186 -0.225592 0)
(-0.00257305 -0.129996 0)
(-0.00536542 0.0461205 0)
(-0.0304121 0.121854 0)
(-0.0361643 0.08436 0)
(-0.0197279 0.0150213 0)
(-0.023316 -0.000213728 0)
(-0.0209874 -0.00739262 0)
(-0.0228126 0.0187269 0)
(-0.0270674 0.0315082 0)
(-0.0214812 0.0338125 0)
(-0.016313 0.00201094 0)
(-0.0265128 0.0163248 0)
(-0.0304385 0.0405465 0)
(-0.0359307 0.0425172 0)
(-0.0365383 0.0259578 0)
(-0.0289407 0.0127329 0)
(-0.0292402 -0.00343183 0)
(-0.0290368 -0.0252153 0)
(-0.0295212 -0.0311565 0)
(-0.0270556 -0.0301 0)
(-0.0258825 -0.015341 0)
(-0.0330222 0.0100469 0)
(-0.0378578 0.0213012 0)
(-0.0330702 0.0239354 0)
(-0.0300228 0.0236641 0)
(-0.0256699 0.0160173 0)
(-0.0264056 -0.000485666 0)
(-0.0239932 -0.023215 0)
(-0.0211775 -0.0291258 0)
(-0.0179927 -0.0215829 0)
(-0.0185871 0.000828316 0)
(-0.0263437 0.0122795 0)
(-0.0283635 0.0142727 0)
(-0.0193188 0.0133425 0)
(-0.0126137 0.00884554 0)
(-0.0149282 -0.000371024 0)
(-0.0138192 -0.0175674 0)
(-0.015085 -0.01328 0)
(-0.0163804 0.014022 0)
(-0.0177502 0.015955 0)
(-0.00931708 0.0078172 0)
(-0.00631125 -0.0136702 0)
(-0.00715006 -0.0149203 0)
(-0.000516219 0.0254911 0)
(-0.00868552 0.014643 0)
(0.00431906 0.0316546 0)
(-0.00165895 0.0347856 0)
(0.00017799 0.040334 0)