/*--------------------------------*- C++ -*----------------------------------*\
| =========                 |                                                 |
| \\      /  F ield         | OpenFOAM: The Open Source CFD Toolbox           |
|  \\    /   O peration     | Version:  2312                                  |
|   \\  /    A nd           | Website:  www.openfoam.com                      |
|    \\/     M anipulation  |                                                 |
\*---------------------------------------------------------------------------*/
FoamFile
{
    version     2.0;
    format      ascii;
    arch        "LSB;label=32;scalar=64";
    class       volVectorField;
    location    "4";
    object      U.waterMean;
}
// * * * * * * * * * * * * * * * * * * * * * * * * * * * * * * * * * * * * * //

dimensions      [0 1 -1 0 0 0 0];

internalField   nonuniform List<vector> 
50000
(
(0.0128125 -0.0559771 0)
(0.0154017 -0.0646051 0)
(0.0243987 -0.0694408 0)
(0.017981 -0.0662364 0)
(0.019125 -0.0577532 0)
(0.00772556 -0.0601204 0)
(-0.00389095 -0.060707 0)
(-7.397e-06 -0.0488931 0)
(0.00424059 -0.0562135 0)
(-0.00295161 -0.0624042 0)
(-0.0175201 -0.0654597 0)
(-0.0248896 -0.0660203 0)
(-0.0198543 -0.0641931 0)
(0.00180141 -0.0522947 0)
(0.0247366 -0.0534923 0)
(0.0287159 -0.0680333 0)
(0.0167179 -0.0713325 0)
(0.00353669 -0.0779094 0)
(-0.00353854 -0.0864694 0)
(-0.00996277 -0.0881534 0)
(-0.0166653 -0.0817092 0)
(-0.0150654 -0.0771465 0)
(-0.00233249 -0.0695376 0)
(0.01004 -0.0737595 0)
(0.0187376 -0.0866505 0)
(0.0156331 -0.0947154 0)
(0.00517883 -0.0932445 0)
(-0.0048285 -0.0986501 0)
(-0.0117368 -0.101578 0)
(-0.0189456 -0.10303 0)
(-0.00700092 -0.0834437 0)
(0.0138337 -0.0888393 0)
(0.0188175 -0.114141 0)
(0.0105343 -0.114029 0)
(0.00229804 -0.118394 0)
(-0.0023633 -0.121329 0)
(-0.0107298 -0.118808 0)
(-0.0150119 -0.117234 0)
(0.00484479 -0.0976919 0)
(0.0140243 -0.13866 0)
(0.00122796 -0.120391 0)
(-0.00491995 -0.133844 0)
(-0.00689386 -0.12137 0)
(0.00817145 -0.122861 0)
(0.0107022 -0.148037 0)
(0.0054165 -0.147664 0)
(0.00470564 -0.152758 0)
(0.00196445 -0.15578 0)
(0.00183628 -0.157586 0)
(0.000428502 -0.157908 0)
(-0.000546247 -0.1579 0)
(-0.00072265 -0.157341 0)
(-0.00322698 -0.156423 0)
(-0.00346316 -0.151101 0)
(-0.00793434 -0.151966 0)
(-0.00616962 -0.12765 0)
(0.00734945 -0.127893 0)
(0.00796259 -0.145805 0)
(0.00257251 -0.142743 0)
(-7.95273e-07 -0.139536 0)
(-0.00598683 -0.140837 0)
(-0.00638196 -0.13492 0)
(-0.0111301 -0.130866 0)
(-0.0150154 -0.119963 0)
(-0.0174017 -0.115638 0)
(-0.00358723 -0.087414 0)
(0.0133144 -0.119944 0)
(-0.00481865 -0.102719 0)
(-0.00973738 -0.0948203 0)
(0.00647374 -0.0860736 0)
(0.0168726 -0.100585 0)
(0.0133177 -0.101994 0)
(0.00453775 -0.100006 0)
(-0.00233111 -0.0956626 0)
(-0.0139719 -0.0920507 0)
(-0.0211564 -0.0916377 0)
(-0.013577 -0.0752528 0)
(-0.00104741 -0.07052 0)
(0.011172 -0.076493 0)
(0.0162966 -0.0787106 0)
(0.0151955 -0.0840713 0)
(0.0116531 -0.08583 0)
(0.0058694 -0.0813485 0)
(-0.00528946 -0.0751749 0)
(-0.015303 -0.0729886 0)
(-0.0168475 -0.0595481 0)
(-0.00939537 -0.0564084 0)
(0.00471473 -0.0630005 0)
(0.010892 -0.0656158 0)
(0.0137134 -0.0671642 0)
(0.00627815 -0.0634004 0)
(-0.00226997 -0.060951 0)
(0.000244061 -0.0526442 0)
(0.0121026 -0.0623743 0)
(0.00936578 -0.0624564 0)
(0.00874821 -0.061001 0)
(0.0141437 -0.0640503 0)
(0.00947609 -0.0661474 0)
(0.00689827 -0.0696215 0)
(0.00183034 -0.0742555 0)
(0.00973521 0.00815302 0)
(0.0245974 0.0330507 0)
(0.0113115 0.0472269 0)
(0.00779805 0.052462 0)
(0.0122629 0.0441485 0)
(-0.00264221 0.0571421 0)
(-0.0104251 0.045292 0)
(-0.00110537 0.0229745 0)
(0.00542753 0.0367709 0)
(0.00350427 0.055056 0)
(-0.0139239 0.057221 0)
(-0.0308188 0.0473165 0)
(-0.0231206 0.0293236 0)
(-0.000452942 0.0092045 0)
(0.0193124 0.0199979 0)
(0.0301325 0.0513807 0)
(0.0237278 0.0610847 0)
(0.00478559 0.064937 0)
(-0.011386 0.0703902 0)
(-0.0169302 0.071604 0)
(-0.0223114 0.0622403 0)
(-0.0199059 0.0511487 0)
(-0.00419425 0.0403258 0)
(0.00933184 0.0461687 0)
(0.0183417 0.0639983 0)
(0.0223552 0.0772009 0)
(0.00659874 0.076999 0)
(-0.0089595 0.081322 0)
(-0.0212203 0.083413 0)
(-0.0232969 0.0809226 0)
(-0.00784315 0.055143 0)
(0.00872311 0.0622912 0)
(0.0198178 0.0938495 0)
(0.0109908 0.0954963 0)
(0.000266121 0.0992372 0)
(-0.00373858 0.101981 0)
(-0.0164616 0.0995127 0)
(-0.0152601 0.0938639 0)
(0.00160226 0.0720373 0)
(0.0167626 0.118655 0)
(0.00596978 0.101154 0)
(-0.0133086 0.113668 0)
(-0.00593213 0.0986026 0)
(0.00271624 0.0996718 0)
(0.00780746 0.12775 0)
(0.00391903 0.127231 0)
(0.00132182 0.132245 0)
(0.000143264 0.135295 0)
(0.00104831 0.137021 0)
(0.00018889 0.137374 0)
(-0.000352294 0.137288 0)
(-0.000237918 0.136857 0)
(-0.000744055 0.135933 0)
(-0.00220482 0.13061 0)
(-0.00490726 0.131656 0)
(-0.00249072 0.104821 0)
(0.00556827 0.105181 0)
(0.00812688 0.125656 0)
(0.0070949 0.122578 0)
(0.00209835 0.119487 0)
(-0.00373205 0.120537 0)
(-0.00240621 0.114497 0)
(-0.00241768 0.110932 0)
(-0.0166422 0.0995537 0)
(-0.014323 0.093032 0)
(-0.000288781 0.0605136 0)
(0.0201063 0.0990337 0)
(-0.00277347 0.0855726 0)
(-0.0111802 0.0711486 0)
(0.00768267 0.0591 0)
(0.0206731 0.0779681 0)
(0.0213934 0.0834497 0)
(0.0118436 0.0823088 0)
(-0.00322453 0.0788248 0)
(-0.0219968 0.0756812 0)
(-0.0218242 0.0706342 0)
(-0.0124312 0.0478245 0)
(0.000489621 0.0414602 0)
(0.0148719 0.0495717 0)
(0.0211295 0.056122 0)
(0.0192876 0.0644647 0)
(0.0208695 0.0680941 0)
(0.0105896 0.0669566 0)
(-0.00798651 0.0628893 0)
(-0.0201079 0.0575359 0)
(-0.017733 0.0358103 0)
(-0.00849125 0.0248668 0)
(0.00881161 0.031201 0)
(0.018225 0.0399095 0)
(0.0149465 0.0484731 0)
(0.00278352 0.0528984 0)
(-0.00402741 0.0434673 0)
(-0.00260746 0.0220307 0)
(0.0101196 0.0347739 0)
(0.00656651 0.0449133 0)
(0.00563447 0.0349652 0)
(0.0202048 0.0434037 0)
(0.0202934 0.0505741 0)
(0.011841 0.0554268 0)
(0.00310532 0.0610392 0)
(-0.00544245 -0.0623757 0)
(0.00604411 -0.0354753 0)
(0.00587647 -0.0213209 0)
(0.00832367 -0.0337392 0)
(0.00391098 -0.0200584 0)
(0.00871324 -0.00801541 0)
(0.0010411 -0.0332297 0)
(-0.00414385 -0.0292596 0)
(-0.00175322 -0.0287263 0)
(-0.00581715 -0.0164735 0)
(-0.00700923 -0.0108264 0)
(-0.0132383 -0.0269035 0)
(-0.00474597 -0.0513284 0)
(0.00129872 -0.0465912 0)
(0.00779802 -0.0399035 0)
(0.00329505 -0.038515 0)
(0.00280505 -0.024839 0)
(-0.00279562 -0.0261028 0)
(-0.0114285 -0.0405989 0)
(-0.0151432 -0.0474068 0)
(-0.0140609 -0.0450153 0)
(-0.00929122 -0.0500276 0)
(-0.00392038 -0.0475609 0)
(0.0037237 -0.0484966 0)
(0.00669029 -0.0573681 0)
(0.00233329 -0.0551264 0)
(0.000232423 -0.0462718 0)
(-0.00764879 -0.0536164 0)
(-0.0134365 -0.0600639 0)
(-0.00821516 -0.0717092 0)
(-0.00521188 -0.058226 0)
(0.00231622 -0.0620267 0)
(0.00141603 -0.0796639 0)
(0.00404054 -0.0721809 0)
(-0.00195883 -0.078479 0)
(-0.00739779 -0.0805227 0)
(-0.00778895 -0.0796976 0)
(-0.00614793 -0.0857895 0)
(0.0007707 -0.0690336 0)
(-0.00147219 -0.105297 0)
(-0.000651647 -0.0775435 0)
(-0.0058451 -0.0954159 0)
(-0.0031148 -0.0882496 0)
(0.00188527 -0.0897921 0)
(0.00376816 -0.113741 0)
(0.00121499 -0.110771 0)
(0.002355 -0.116999 0)
(0.000763459 -0.12073 0)
(0.00110637 -0.122879 0)
(8.15029e-05 -0.12288 0)
(-0.000263634 -0.123116 0)
(-0.000310111 -0.122406 0)
(-0.00165207 -0.121266 0)
(-0.000964967 -0.114878 0)
(-0.0031977 -0.117409 0)
(-0.0022019 -0.0938554 0)
(0.00519232 -0.0941276 0)
(0.00490895 -0.110851 0)
(0.00403213 -0.105404 0)
(0.00199737 -0.101457 0)
(0.00326699 -0.103657 0)
(-0.000983242 -0.098966 0)
(-0.00426997 -0.0916278 0)
(-0.00292184 -0.0808906 0)
(-0.00121424 -0.0855585 0)
(-0.00299852 -0.060706 0)
(0.00826459 -0.0826098 0)
(0.00230863 -0.0581592 0)
(0.00408168 -0.0625807 0)
(0.00696464 -0.0605345 0)
(0.00759724 -0.0694317 0)
(0.0125433 -0.0622401 0)
(0.00875824 -0.0556273 0)
(0.000718467 -0.047738 0)
(-0.00130451 -0.0491532 0)
(-0.0072628 -0.0611578 0)
(-0.00640503 -0.0495372 0)
(0.00191437 -0.0476234 0)
(0.00810679 -0.0510544 0)
(0.0141696 -0.0457447 0)
(0.0165872 -0.0486914 0)
(0.0161549 -0.0459082 0)
(0.0101299 -0.0319529 0)
(0.00520299 -0.0247806 0)
(0.00273933 -0.0346636 0)
(-0.00593907 -0.0340794 0)
(-0.00349572 -0.0396001 0)
(-0.00157661 -0.0472739 0)
(0.00657363 -0.0356955 0)
(0.0111142 -0.024296 0)
(0.00755821 -0.0170716 0)
(0.00512886 -0.0250778 0)
(-0.00108712 -0.0313131 0)
(0.000609934 -0.0377865 0)
(-0.00362172 -0.0244099 0)
(0.00345719 -0.0413404 0)
(0.00868024 -0.0425052 0)
(0.00847546 -0.024246 0)
(0.0058589 -0.0187395 0)
(0.00152832 -0.0244147 0)
(-0.00510667 -0.00857558 0)
(0.000508076 0.00267407 0)
(0.00739401 0.0232949 0)
(0.000596454 0.0370254 0)
(-0.00591555 0.0220848 0)
(0.00470171 0.0379906 0)
(-0.00187923 0.0368625 0)
(-0.00136968 0.0064266 0)
(0.00301803 0.0178454 0)
(0.000660085 0.0365511 0)
(-0.00292035 0.0390367 0)
(-0.00854057 0.0255685 0)
(-0.00666784 0.002275 0)
(0.000173223 -0.0146197 0)
(0.00714951 0.00153764 0)
(0.00514311 0.0338228 0)
(-0.000219055 0.0399525 0)
(0.000538081 0.0449356 0)
(-0.0027618 0.0481771 0)
(-0.0195078 0.0456844 0)
(-0.0157065 0.0350531 0)
(-0.0107073 0.0241993 0)
(-0.00466185 0.0146579 0)
(0.00375511 0.0199499 0)
(0.00794199 0.0413059 0)
(0.00484292 0.0520407 0)
(-0.000601596 0.0514969 0)
(-0.0036087 0.0560564 0)
(-0.0148224 0.0544572 0)
(-0.0149521 0.053522 0)
(-0.00607112 0.0299341 0)
(0.00211479 0.0373727 0)
(0.00668661 0.0671333 0)
(0.00467003 0.0664926 0)
(0.000613055 0.0719978 0)
(-0.00918253 0.0726494 0)
(-0.0102867 0.0702884 0)
(-0.00824415 0.0662759 0)
(-0.000598753 0.0465167 0)
(0.00966948 0.0921954 0)
(-0.00120036 0.0707947 0)
(-0.00590799 0.0844996 0)
(-0.00413431 0.0700565 0)
(0.00107306 0.0715782 0)
(0.00578866 0.100479 0)
(0.00225534 0.0979289 0)
(0.00171881 0.103659 0)
(0.000353543 0.106981 0)
(0.000583705 0.108849 0)
(9.30338e-05 0.109083 0)
(-0.000184092 0.109006 0)
(-0.000394264 0.108665 0)
(-0.000593404 0.107705 0)
(-0.00125695 0.101597 0)
(-0.0038886 0.104147 0)
(-0.00124511 0.0759122 0)
(0.00475543 0.0763924 0)
(0.00679471 0.0975392 0)
(0.00145256 0.0930447 0)
(0.00252619 0.0904335 0)
(0.00549084 0.0908674 0)
(-0.00583569 0.0863611 0)
(-0.0062966 0.0820768 0)
(-0.00297021 0.0699984 0)
(-0.00604976 0.0684883 0)
(0.000356552 0.0347978 0)
(0.011438 0.0690363 0)
(0.00165669 0.0576242 0)
(0.00122529 0.0442424 0)
(0.00680272 0.035393 0)
(0.0132216 0.0512069 0)
(0.015468 0.0544494 0)
(0.00504572 0.0561718 0)
(0.00144906 0.0527565 0)
(0.000433554 0.0496748 0)
(-0.010523 0.0486938 0)
(-0.00509548 0.0215647 0)
(0.00208076 0.014906 0)
(0.00881873 0.0225885 0)
(0.0147862 0.0290121 0)
(0.0213896 0.0380364 0)
(0.00829362 0.0440202 0)
(0.00426097 0.045038 0)
(0.00704436 0.0409114 0)
(0.00130451 0.0402402 0)
(-0.0043653 0.0189467 0)
(-0.00239815 0.00358392 0)
(0.0014113 0.00633933 0)
(0.00607204 0.0111262 0)
(0.00970371 0.02484 0)
(0.00864513 0.0352201 0)
(0.00185738 0.0279628 0)
(-0.000449681 0.0064509 0)
(0.000744896 0.0159829 0)
(-0.00165772 0.0223995 0)
(0.00535436 0.00126817 0)
(0.00768688 0.0194621 0)
(0.00677426 0.0287512 0)
(0.00800679 0.0381544 0)
(0.00790778 0.0422801 0)
(0.00300958 -0.0456282 0)
(0.00600142 -0.0342939 0)
(-0.000556726 -0.00740516 0)
(-0.000863629 -0.00257072 0)
(-0.00135693 -0.00892008 0)
(0.00230631 0.00436117 0)
(0.00308877 -0.0147359 0)
(0.00219356 -0.0203135 0)
(-0.00091384 -0.0178824 0)
(-0.000635158 0.00383775 0)
(0.000819136 0.00929756 0)
(-0.00133334 -0.00871945 0)
(-0.000753692 -0.0431324 0)
(-9.71292e-05 -0.0434221 0)
(-0.00193363 -0.0296258 0)
(-0.00527576 -0.0183216 0)
(-0.00941919 -0.00576165 0)
(-0.0138573 -0.00672255 0)
(-0.0103812 -0.0096319 0)
(-0.013284 -0.0199029 0)
(-0.00925462 -0.0292675 0)
(-0.00905376 -0.0357526 0)
(-0.00446277 -0.0360297 0)
(-0.00225359 -0.0346718 0)
(-0.00357732 -0.0385645 0)
(-0.00658421 -0.0295844 0)
(-0.0072939 -0.0220892 0)
(-0.00989899 -0.0254679 0)
(-0.0109216 -0.0323233 0)
(-0.00275034 -0.0523369 0)
(-0.00543467 -0.0436315 0)
(-0.0032997 -0.0450397 0)
(-0.0056552 -0.0568012 0)
(-0.00325045 -0.0456061 0)
(-0.0054189 -0.0491519 0)
(-0.00614995 -0.0512786 0)
(-0.00518467 -0.054688 0)
(-0.00463291 -0.063846 0)
(-0.00259255 -0.0506729 0)
(-0.00642135 -0.0798946 0)
(-0.00331782 -0.0483822 0)
(-0.00491033 -0.0681096 0)
(-0.00249178 -0.0641769 0)
(-0.000496823 -0.0661049 0)
(-0.000224238 -0.0877305 0)
(-0.00037709 -0.0823755 0)
(0.00081122 -0.0893454 0)
(-0.000266246 -0.0930101 0)
(0.000668107 -0.0954887 0)
(-0.000197381 -0.0954034 0)
(-7.7268e-05 -0.0956639 0)
(0.000231048 -0.0948395 0)
(-0.000513135 -0.0937445 0)
(8.74061e-05 -0.0864671 0)
(-0.000278641 -0.0906712 0)
(-0.000494492 -0.0691145 0)
(0.00332812 -0.0692438 0)
(0.00345498 -0.0833019 0)
(0.00458436 -0.0767354 0)
(0.00214532 -0.0758721 0)
(0.00344293 -0.0738702 0)
(0.00252341 -0.069082 0)
(0.00150013 -0.0664948 0)
(0.00370604 -0.0557441 0)
(0.00523615 -0.0638074 0)
(0.000292908 -0.044314 0)
(0.0065245 -0.0566342 0)
(0.00626154 -0.0322929 0)
(0.00683866 -0.0413163 0)
(0.00761262 -0.044204 0)
(0.00349088 -0.0499524 0)
(0.0107168 -0.035581 0)
(0.00950381 -0.0268814 0)
(0.00955032 -0.0237698 0)
(0.00642638 -0.0221711 0)
(0.00616154 -0.0390385 0)
(0.00222378 -0.0353173 0)
(0.00325037 -0.0356369 0)
(0.00831396 -0.0378994 0)
(0.0101132 -0.032286 0)
(0.013834 -0.0253597 0)
(0.0120373 -0.0159548 0)
(0.0167024 -0.0120942 0)
(0.0131661 -0.0060223 0)
(0.00881216 -0.0108641 0)
(0.00502912 -0.0172193 0)
(0.00184807 -0.0286363 0)
(0.00191347 -0.0384189 0)
(0.00372413 -0.0258071 0)
(0.00799202 -0.0109534 0)
(0.00892855 0.00423612 0)
(0.00685892 -0.00353035 0)
(0.00183765 -0.0170766 0)
(0.00144364 -0.0221904 0)
(0.000676832 -0.0128361 0)
(0.00223466 -0.034249 0)
(0.000569712 -0.0265253 0)
(0.00201402 -0.00839189 0)
(-0.00142563 -0.00212383 0)
(0.000997729 0.00998245 0)
(0.00550551 -0.0283246 0)
(0.00508849 -0.0033502 0)
(0.000459703 0.0189054 0)
(-0.00114143 0.0258052 0)
(-0.00189328 0.00943517 0)
(0.00288597 0.0246775 0)
(-4.88376e-05 0.0258552 0)
(0.000950714 -5.69361e-05 0)
(-0.000517336 0.010222 0)
(0.00114421 0.0249643 0)
(0.00409817 0.029033 0)
(0.00230894 0.0166035 0)
(0.00103998 -0.00944235 0)
(-0.000900577 -0.0225362 0)
(-0.00240573 -0.00625476 0)
(-0.00678773 0.0257386 0)
(-0.00998883 0.031982 0)
(-0.0109291 0.0324644 0)
(-0.00978012 0.0310848 0)
(-0.00922564 0.0281406 0)
(-0.0107407 0.0184274 0)
(-0.010939 0.00768273 0)
(-0.00506782 -0.00131866 0)
(-0.00183935 0.00459541 0)
(-0.000195421 0.027572 0)
(-0.00849808 0.0346043 0)
(-0.00500978 0.0364999 0)
(-0.00722047 0.0376663 0)
(-0.00840166 0.0331118 0)
(-0.00634787 0.0336285 0)
(-0.00538302 0.0142931 0)
(-0.00119653 0.0201929 0)
(-0.000105203 0.0470301 0)
(-0.00211955 0.0456282 0)
(-0.00481613 0.0499826 0)
(-0.00760828 0.0497346 0)
(-0.00493652 0.0485008 0)
(-0.00584504 0.0448855 0)
(-0.0022082 0.0282104 0)
(0.00245422 0.0688432 0)
(-0.00494315 0.048279 0)
(-0.00219488 0.0608313 0)
(-0.00276429 0.0472279 0)
(0.000562079 0.0487747 0)
(0.00448566 0.0762909 0)
(0.00080593 0.0724714 0)
(0.0017609 0.0782399 0)
(0.00034018 0.0811873 0)
(8.31023e-05 0.0830484 0)
(-0.000123566 0.0834492 0)
(0.000338273 0.0831638 0)
(0.000121222 0.0829651 0)
(-0.000584122 0.082161 0)
(-0.00059763 0.0758085 0)
(-0.00364712 0.0793683 0)
(-0.000787574 0.0520648 0)
(0.00374756 0.052331 0)
(0.00550365 0.0725057 0)
(0.00226257 0.0677974 0)
(0.00050501 0.0671642 0)
(0.00541087 0.0653517 0)
(-0.00149177 0.061243 0)
(-0.00707598 0.0598112 0)
(0.0030692 0.0479743 0)
(-0.00070507 0.049225 0)
(0.00194478 0.0174926 0)
(0.00737503 0.0450743 0)
(0.0047319 0.0388802 0)
(0.00549291 0.0249037 0)
(0.00711319 0.0201196 0)
(0.006145 0.0316386 0)
(0.00845449 0.0333722 0)
(0.00849121 0.0366889 0)
(0.00627369 0.036661 0)
(0.00982183 0.032955 0)
(0.00223245 0.0336153 0)
(0.00168392 0.00746671 0)
(0.0039129 -0.00101343 0)
(0.00953438 0.00557868 0)
(0.0110099 0.0123821 0)
(0.010734 0.0212638 0)
(0.0118155 0.0254604 0)
(0.0113963 0.0306133 0)
(0.0105039 0.0325816 0)
(0.00921453 0.0311312 0)
(0.00631459 0.0113741 0)
(0.00408475 -0.00526112 0)
(0.00251404 -0.00542033 0)
(0.00169335 -0.00335062 0)
(0.00412967 0.0104809 0)
(0.00720955 0.0262192 0)
(0.00501471 0.0220476 0)
(0.00336772 0.00109171 0)
(0.00447029 0.00533086 0)
(0.00250648 0.0118613 0)
(0.0031969 -0.0108283 0)
(0.00145389 0.00889921 0)
(-0.000279138 0.01817 0)
(-0.00304664 0.0280019 0)
(-0.00286702 0.0277093 0)
(0.00378925 -0.0511424 0)
(0.00510543 -0.0231263 0)
(0.00252396 0.00435558 0)
(-0.000319244 0.00785443 0)
(-0.000337227 -0.00555635 0)
(0.00123724 0.00979292 0)
(-9.77756e-05 -0.00528629 0)
(0.003312 -0.0141255 0)
(0.000939526 -0.0124574 0)
(0.00145395 0.00729709 0)
(0.00386479 0.0153724 0)
(0.00168462 2.62655e-05 0)
(0.000247149 -0.0336556 0)
(-0.00190151 -0.0367567 0)
(-0.00951437 -0.0188912 0)
(-0.0149827 -0.00495729 0)
(-0.0156072 0.0046381 0)
(-0.0152937 0.00199306 0)
(-0.0123345 -0.000167975 0)
(-0.010848 -0.00791497 0)
(-0.00876193 -0.0175127 0)
(-0.00752761 -0.0278901 0)
(-0.00631957 -0.0300195 0)
(-0.00655031 -0.0256368 0)
(-0.0105376 -0.0251313 0)
(-0.0116614 -0.0139305 0)
(-0.0122691 -0.0115123 0)
(-0.0106885 -0.0103683 0)
(-0.00802721 -0.0184362 0)
(-0.00534069 -0.0385768 0)
(-0.00471636 -0.0334395 0)
(-0.00618347 -0.0331904 0)
(-0.0091583 -0.0402685 0)
(-0.00737923 -0.0285719 0)
(-0.00721359 -0.0300489 0)
(-0.00491273 -0.033396 0)
(-0.00462737 -0.0377601 0)
(-0.00418495 -0.0472161 0)
(-0.00442835 -0.0376667 0)
(-0.00722391 -0.0589523 0)
(-0.00449446 -0.0305026 0)
(-0.00439405 -0.049183 0)
(-0.0023695 -0.0463262 0)
(-0.00192995 -0.0486039 0)
(-0.0023508 -0.0668598 0)
(-0.00133087 -0.0605549 0)
(-0.000322253 -0.0674159 0)
(-0.00114966 -0.0702877 0)
(0.000276129 -0.0728015 0)
(-0.000242258 -0.0730047 0)
(6.84582e-06 -0.0730495 0)
(0.00060868 -0.072241 0)
(0.000464016 -0.0714155 0)
(0.000754806 -0.0639156 0)
(0.00169751 -0.0690534 0)
(0.000612023 -0.0505163 0)
(0.00247907 -0.0504478 0)
(0.00247948 -0.0618101 0)
(0.00496791 -0.05444 0)
(0.00295107 -0.0565056 0)
(0.00304701 -0.0524082 0)
(0.00343064 -0.0453146 0)
(0.00714778 -0.0496254 0)
(0.00528046 -0.0401003 0)
(0.00719821 -0.0471182 0)
(0.0025364 -0.0332579 0)
(0.00523762 -0.0390621 0)
(0.00857296 -0.0180209 0)
(0.00767175 -0.0272564 0)
(0.00650848 -0.0323219 0)
(0.00650002 -0.0355038 0)
(0.00868336 -0.0218883 0)
(0.0108277 -0.0120469 0)
(0.0127697 -0.0122081 0)
(0.0115724 -0.00830113 0)
(0.0136382 -0.0234408 0)
(0.00874583 -0.0253364 0)
(0.0060597 -0.0289656 0)
(0.0071235 -0.0308709 0)
(0.00866178 -0.022272 0)
(0.0111706 -0.0145083 0)
(0.0122374 -0.00547342 0)
(0.014817 -0.00170665 0)
(0.015847 0.00286487 0)
(0.0150345 0.000635438 0)
(0.0129756 -0.00681834 0)
(0.00736056 -0.0194691 0)
(0.00552323 -0.0300165 0)
(0.00204641 -0.019755 0)
(0.00417872 -0.00795998 0)
(0.00718319 0.0103438 0)
(0.0070129 0.00560703 0)
(0.00465854 -0.0108501 0)
(0.00380896 -0.014879 0)
(0.00441442 -0.00443342 0)
(0.00299798 -0.026993 0)
(0.000938094 -0.0149517 0)
(-0.00165755 0.00262112 0)
(-0.00252432 0.00868514 0)
(-0.000291183 0.0114439 0)
(0.00205571 -0.0428638 0)
(0.001343 -0.00784955 0)
(0.000124276 0.0184847 0)
(-0.00211189 0.0234785 0)
(-0.00100177 0.00361312 0)
(0.00177458 0.0206115 0)
(-0.000237277 0.0185038 0)
(0.00262212 -0.00547337 0)
(0.00189001 0.00720835 0)
(0.000357379 0.018382 0)
(0.00256674 0.024822 0)
(0.00314363 0.01473 0)
(0.00150131 -0.0133042 0)
(-0.00313085 -0.0212551 0)
(-0.00814849 -0.00433969 0)
(-0.0124707 0.0221678 0)
(-0.0161784 0.0262698 0)
(-0.0155749 0.0246813 0)
(-0.0104919 0.0221125 0)
(-0.00802553 0.0184164 0)
(-0.00834825 0.00887731 0)
(-0.0083033 -0.00111353 0)
(-0.00665024 -0.00907623 0)
(-0.00671524 -0.00258836 0)
(-0.00689926 0.0206928 0)
(-0.0121821 0.0245783 0)
(-0.0100157 0.0278468 0)
(-0.00993601 0.0260466 0)
(-0.00475261 0.0211899 0)
(-0.0046881 0.0208421 0)
(-0.00513983 0.00544179 0)
(-0.00352437 0.0106899 0)
(-0.00471157 0.0337208 0)
(-0.0073182 0.0325499 0)
(-0.00604413 0.0353948 0)
(-0.00451785 0.0352057 0)
(-0.00305843 0.0342977 0)
(-0.00535883 0.0305414 0)
(-0.00333031 0.0170146 0)
(-0.00293943 0.0510689 0)
(-0.00563881 0.0344211 0)
(-0.00102728 0.0445622 0)
(-0.00224702 0.0316893 0)
(-2.64691e-05 0.0331795 0)
(0.00327428 0.0579345 0)
(-0.000237392 0.0538113 0)
(0.00145874 0.0591212 0)
(3.40637e-05 0.0613421 0)
(0.000141208 0.0629353 0)
(-0.000212445 0.0638862 0)
(0.000279363 0.0630845 0)
(0.000388566 0.0631081 0)
(-0.000261223 0.0624682 0)
(0.000105901 0.05642 0)
(-0.00287979 0.0603521 0)
(-0.000237595 0.0353819 0)
(0.00309063 0.0354572 0)
(0.0044092 0.0539733 0)
(0.0042989 0.0495767 0)
(0.00077957 0.0503856 0)
(0.00177843 0.047853 0)
(0.00215556 0.0428061 0)
(-0.00384927 0.0446516 0)
(0.00246982 0.0343411 0)
(0.00124503 0.0359251 0)
(0.00286706 0.00780417 0)
(0.00502693 0.0288283 0)
(0.00674654 0.0278365 0)
(0.00704379 0.0138486 0)
(0.00729368 0.010883 0)
(0.00596583 0.0189465 0)
(0.00486232 0.0214388 0)
(0.00953756 0.0251642 0)
(0.0105374 0.0275953 0)
(0.0135274 0.0236008 0)
(0.00980404 0.0245976 0)
(0.00785229 0.002129 0)
(0.00690975 -0.00803307 0)
(0.00826471 -0.00297141 0)
(0.00839302 0.00264841 0)
(0.00742919 0.0117249 0)
(0.0104569 0.0166651 0)
(0.0152947 0.021897 0)
(0.0162278 0.0266527 0)
(0.0127423 0.0255473 0)
(0.011465 0.0101475 0)
(0.00850028 -0.00600495 0)
(0.00500896 -0.00752787 0)
(0.000936488 -0.00756609 0)
(0.00266109 0.00212051 0)
(0.00601271 0.0202725 0)
(0.00457016 0.0195608 0)
(0.00499251 -2.44767e-05 0)
(0.00483468 0.000219711 0)
(0.00541652 0.00809411 0)
(0.00350226 -0.0130273 0)
(0.00158101 0.00793764 0)
(-0.0029364 0.0164447 0)
(-0.00301942 0.0219294 0)
(-0.00204676 0.0198711 0)
(0.00119111 -0.0511552 0)
(-0.000928035 -0.0178562 0)
(0.000331828 0.0103845 0)
(-0.00339781 0.0132952 0)
(-0.000689615 -0.00589165 0)
(-0.000845658 0.0128577 0)
(-0.000934061 -0.00243645 0)
(0.00490165 -0.0120846 0)
(0.00190561 -0.00839901 0)
(-0.000561288 0.011163 0)
(-0.00112484 0.0159555 0)
(-0.000742499 0.00353105 0)
(-4.42823e-05 -0.0256326 0)
(-0.00469495 -0.0285562 0)
(-0.0119839 -0.00997397 0)
(-0.0165073 0.00461236 0)
(-0.0168779 0.0104632 0)
(-0.0148122 0.00435985 0)
(-0.0120541 0.00129043 0)
(-0.00875058 -0.00302535 0)
(-0.00697411 -0.0113829 0)
(-0.00768127 -0.0225699 0)
(-0.00779821 -0.0250721 0)
(-0.0103048 -0.018937 0)
(-0.0133243 -0.0163388 0)
(-0.012594 -0.00496506 0)
(-0.013694 -0.00506796 0)
(-0.0115248 -0.00416846 0)
(-0.0071585 -0.0121325 0)
(-0.00673811 -0.0286494 0)
(-0.00416063 -0.0267392 0)
(-0.0076129 -0.024915 0)
(-0.0104207 -0.0279784 0)
(-0.00904289 -0.0182715 0)
(-0.00775438 -0.0195593 0)
(-0.00428667 -0.0228002 0)
(-0.00500681 -0.0258942 0)
(-0.00381472 -0.0351573 0)
(-0.00526124 -0.0285098 0)
(-0.00712944 -0.0429583 0)
(-0.00441981 -0.0199859 0)
(-0.00472159 -0.0363422 0)
(-0.00196466 -0.0338617 0)
(-0.00304253 -0.0361867 0)
(-0.00349062 -0.0508118 0)
(-0.00176178 -0.0445408 0)
(-0.00112966 -0.0507918 0)
(-0.00179385 -0.052777 0)
(-5.50416e-05 -0.0550265 0)
(-0.000234812 -0.0556565 0)
(6.13702e-05 -0.0554403 0)
(0.000723639 -0.0548002 0)
(0.00123546 -0.054167 0)
(0.00133899 -0.0470562 0)
(0.00240329 -0.0523972 0)
(0.00160385 -0.0373023 0)
(0.00226164 -0.036983 0)
(0.00186324 -0.0463747 0)
(0.00476172 -0.0384484 0)
(0.00360595 -0.0411245 0)
(0.00320038 -0.0381004 0)
(0.00458386 -0.0299501 0)
(0.00924326 -0.0370717 0)
(0.00579673 -0.0299743 0)
(0.00754443 -0.0353687 0)
(0.00403604 -0.0261618 0)
(0.00477913 -0.0279831 0)
(0.00995396 -0.010254 0)
(0.00793371 -0.0183976 0)
(0.00564758 -0.024555 0)
(0.00729942 -0.0250768 0)
(0.00795211 -0.0147111 0)
(0.00950789 -0.00612889 0)
(0.0137259 -0.00636883 0)
(0.0139624 -0.00132293 0)
(0.0153629 -0.0134463 0)
(0.0122124 -0.0184007 0)
(0.00852514 -0.0233409 0)
(0.00756845 -0.0258894 0)
(0.00788965 -0.0157902 0)
(0.00893422 -0.00981259 0)
(0.0114422 -0.00437704 0)
(0.0133524 0.000831294 0)
(0.0157407 0.0092814 0)
(0.0160084 0.0092366 0)
(0.0150602 -0.000524316 0)
(0.00921533 -0.012014 0)
(0.00727727 -0.0218266 0)
(0.00291347 -0.0148464 0)
(0.00327749 -0.00830748 0)
(0.00480836 0.0128293 0)
(0.00512145 0.00927282 0)
(0.0051083 -0.00841829 0)
(0.00491538 -0.0121642 0)
(0.0060846 0.000279768 0)
(0.00281341 -0.0206325 0)
(0.0018301 -0.00483673 0)
(-0.00140022 0.0102625 0)
(-0.00192932 0.0112091 0)
(0.000210944 0.00905555 0)
(0.00119503 -0.0455677 0)
(-0.00161307 -0.00997551 0)
(-0.00124781 0.0182282 0)
(-0.00252688 0.0224685 0)
(-0.000365152 -0.000958835 0)
(-0.00148773 0.0189475 0)
(6.37758e-05 0.0102488 0)
(0.00286428 -0.0100805 0)
(-0.000554868 0.00886335 0)
(-0.002679 0.0180636 0)
(-0.00154218 0.0230187 0)
(-0.000708709 0.0112008 0)
(-0.00237826 -0.0142257 0)
(-0.00548501 -0.0167073 0)
(-0.00990625 -0.000309898 0)
(-0.0143881 0.0210371 0)
(-0.0157745 0.0227297 0)
(-0.0139641 0.0185269 0)
(-0.009974 0.0160303 0)
(-0.00650304 0.0117624 0)
(-0.00695451 0.00419654 0)
(-0.00800407 -0.00522065 0)
(-0.00771481 -0.0120008 0)
(-0.00875656 -0.00546725 0)
(-0.00896114 0.0159249 0)
(-0.0132758 0.0187439 0)
(-0.012529 0.0224593 0)
(-0.0104562 0.0185239 0)
(-0.00275314 0.0139233 0)
(-0.00527507 0.011973 0)
(-0.00499804 -4.30115e-06 0)
(-0.00496786 0.00552053 0)
(-0.00716562 0.0245286 0)
(-0.00918823 0.0242579 0)
(-0.0058455 0.0257626 0)
(-0.00328945 0.0256368 0)
(-0.00385804 0.0246572 0)
(-0.00511805 0.0205376 0)
(-0.0038776 0.00987041 0)
(-0.00464209 0.0377535 0)
(-0.0052898 0.0254799 0)
(-0.0015302 0.0331205 0)
(-0.00207857 0.0211281 0)
(-0.000546329 0.0223998 0)
(0.0019665 0.0439679 0)
(-0.000963683 0.0402004 0)
(0.00104649 0.044788 0)
(-0.000409803 0.0462991 0)
(0.000225818 0.0472875 0)
(-0.000170114 0.0488579 0)
(-1.23317e-05 0.0476008 0)
(0.000405314 0.0479683 0)
(-3.68601e-05 0.0474068 0)
(0.000637899 0.042129 0)
(-0.00183132 0.0459067 0)
(0.000363835 0.0237174 0)
(0.00264959 0.0236686 0)
(0.00397102 0.0403817 0)
(0.00448564 0.0364955 0)
(0.00178161 0.0377096 0)
(-0.000796609 0.035686 0)
(0.00405773 0.0303372 0)
(0.00205774 0.033779 0)
(0.00357556 0.0257109 0)
(0.00178196 0.0263332 0)
(0.0032903 0.00207522 0)
(0.004163 0.0177336 0)
(0.00782746 0.0208037 0)
(0.00755015 0.00787893 0)
(0.00682875 0.00505597 0)
(0.00683083 0.010549 0)
(0.00451117 0.0145465 0)
(0.00966962 0.0178149 0)
(0.0117353 0.0202756 0)
(0.0135214 0.0183666 0)
(0.0119415 0.0188597 0)
(0.0098063 1.04958e-05 0)
(0.00802325 -0.0104927 0)
(0.0076758 -0.00678045 0)
(0.00802603 -0.00200348 0)
(0.00760406 0.00604931 0)
(0.00892223 0.0112852 0)
(0.0119063 0.0163199 0)
(0.0137238 0.0218131 0)
(0.0137099 0.0218484 0)
(0.0130993 0.0111941 0)
(0.00964462 -0.00414857 0)
(0.00808598 -0.00634004 0)
(0.00275661 -0.00767519 0)
(0.000934559 -0.00106071 0)
(0.00465381 0.0170628 0)
(0.00620508 0.0169061 0)
(0.00615216 -0.001455 0)
(0.00551685 -0.00310019 0)
(0.00639066 0.00817656 0)
(0.00523144 -0.0115118 0)
(0.00318003 0.00909733 0)
(-0.000927632 0.0180561 0)
(-0.00143967 0.0176461 0)
(-0.000633093 0.0163793 0)
(0.00132787 -0.0492546 0)
(-0.00267578 -0.0132361 0)
(-0.00281135 0.0127744 0)
(-0.00275904 0.0145921 0)
(-0.000915246 -0.00448252 0)
(-0.00480832 0.0148473 0)
(-0.000395831 -0.00377561 0)
(0.00137781 -0.00940515 0)
(-0.00144062 -0.00242646 0)
(-0.00357896 0.014036 0)
(-0.0051661 0.0165478 0)
(-0.00171843 0.00647058 0)
(-0.00353861 -0.0203025 0)
(-0.00707608 -0.0226363 0)
(-0.011177 -0.0025864 0)
(-0.0137637 0.0109693 0)
(-0.0150231 0.0127286 0)
(-0.0125404 0.00444937 0)
(-0.00993786 0.000419167 0)
(-0.00626075 -0.000829406 0)
(-0.00650289 -0.00738768 0)
(-0.00710528 -0.0192203 0)
(-0.00810647 -0.0221892 0)
(-0.0125038 -0.0149716 0)
(-0.0157575 -0.0098368 0)
(-0.0132655 0.00102026 0)
(-0.014687 -0.00171708 0)
(-0.00958803 -0.00290259 0)
(-0.00687124 -0.00886025 0)
(-0.00691572 -0.021111 0)
(-0.00419858 -0.0220964 0)
(-0.00830151 -0.0187085 0)
(-0.0100235 -0.0186869 0)
(-0.00973781 -0.0120097 0)
(-0.00751694 -0.0137565 0)
(-0.00390885 -0.0156019 0)
(-0.00545631 -0.0173343 0)
(-0.00338503 -0.0264499 0)
(-0.00515848 -0.0220204 0)
(-0.00670802 -0.0310488 0)
(-0.0037016 -0.01331 0)
(-0.004875 -0.0272739 0)
(-0.00179641 -0.0251878 0)
(-0.0036571 -0.0273217 0)
(-0.00400441 -0.0384797 0)
(-0.002465 -0.0328942 0)
(-0.00168662 -0.038272 0)
(-0.00208937 -0.0394497 0)
(-0.000578164 -0.0412249 0)
(-3.9212e-05 -0.0422104 0)
(0.000301936 -0.0417231 0)
(0.000900478 -0.0414223 0)
(0.00149753 -0.0409314 0)
(0.00168289 -0.0344262 0)
(0.00366845 -0.0396247 0)
(0.00239633 -0.0278092 0)
(0.00177018 -0.0274478 0)
(0.000731227 -0.0350078 0)
(0.00387553 -0.0271297 0)
(0.00410692 -0.0287002 0)
(0.00417337 -0.0283686 0)
(0.0050385 -0.0210701 0)
(0.00923795 -0.0276384 0)
(0.00599709 -0.0221906 0)
(0.00704684 -0.0265663 0)
(0.00499599 -0.0211668 0)
(0.00528063 -0.0210964 0)
(0.00974291 -0.00565972 0)
(0.00806017 -0.0124415 0)
(0.00576032 -0.0193188 0)
(0.00741854 -0.0180686 0)
(0.00726605 -0.0103674 0)
(0.00929158 -0.00374757 0)
(0.0137282 -0.0022361 0)
(0.0133066 0.00234543 0)
(0.015248 -0.00668698 0)
(0.0132027 -0.0132395 0)
(0.00933193 -0.0195939 0)
(0.0090309 -0.0230792 0)
(0.00832938 -0.0130955 0)
(0.00694259 -0.00687624 0)
(0.00810592 -0.00352178 0)
(0.00920881 0.00119058 0)
(0.0135926 0.0107644 0)
(0.0137884 0.0120691 0)
(0.0134638 0.00401862 0)
(0.0106878 -0.00695628 0)
(0.00923231 -0.0158312 0)
(0.00586412 -0.00808252 0)
(0.00495346 -0.00869559 0)
(0.00562752 0.0101687 0)
(0.00653848 0.0102698 0)
(0.0058633 -0.00620839 0)
(0.00453932 -0.0108722 0)
(0.00629995 0.00218104 0)
(0.00384723 -0.0161532 0)
(0.00395705 0.00319032 0)
(-0.000229978 0.0163157 0)
(-0.00317739 0.0129336 0)
(-0.00276792 0.00819271 0)
(0.00050807 -0.0455558 0)
(-0.00109177 -0.00662971 0)
(-0.000999598 0.016936 0)
(-0.00459479 0.0192015 0)
(-0.0042507 2.76571e-05 0)
(-0.00494686 0.0176523 0)
(-0.00348702 0.00248573 0)
(-0.000826528 -0.00996936 0)
(-0.00192018 0.0101257 0)
(-0.00545998 0.019938 0)
(-0.00701053 0.0203558 0)
(-0.00242975 0.00825173 0)
(-0.00308031 -0.0127405 0)
(-0.00589546 -0.0132852 0)
(-0.00943366 0.00118542 0)
(-0.0120772 0.0208138 0)
(-0.01349 0.0201807 0)
(-0.0120021 0.0142259 0)
(-0.00819822 0.0109805 0)
(-0.00486414 0.00780526 0)
(-0.00570697 0.00227083 0)
(-0.00762293 -0.00677456 0)
(-0.00845026 -0.011675 0)
(-0.00911905 -0.00514568 0)
(-0.0101081 0.0123575 0)
(-0.0130054 0.0148244 0)
(-0.0121343 0.0176575 0)