/*--------------------------------*- C++ -*----------------------------------*\
| =========                 |                                                 |
| \\      /  F ield         | OpenFOAM: The Open Source CFD Toolbox           |
|  \\    /   O peration     | Version:  2312                                  |
|   \\  /    A nd           | Website:  www.openfoam.com                      |
|    \\/     M anipulation  |                                                 |
\*---------------------------------------------------------------------------*/
FoamFile
{
    version     2.0;
    format      ascii;
    arch        "LSB;label=32;scalar=64";
    class       volScalarField;
    location    "1";
    object      alphas;
}
// * * * * * * * * * * * * * * * * * * * * * * * * * * * * * * * * * * * * * //

dimensions      [0 0 0 0 0 0 0];

internalField   nonuniform List<scalar> 
50000
(
0.791947
0.808067
0.810819
0.792993
0.794766
0.812405
0.79728
0.794221
0.797264
0.795808
0.811328
0.811312
0.798092
0.796752
0.79686
0.796329
0.807242
0.798477
0.799168
0.792891
0.801842
0.801445
0.797274
0.797928
0.791116
0.796586
0.793049
0.789371
0.789661
0.789408
0.789278
0.788684
0.789177
0.788681
0.788616
0.788644
0.789337
0.788511
0.788784
0.788405
0.788476
0.788452
0.78847
0.788411
0.788306
0.788432
0.788314
0.788341
0.788428
0.788363
0.788339
0.788385
0.788332
0.788439
0.788325
0.788457
0.788406
0.788404
0.788454
0.788593
0.788398
0.788601
0.788419
0.789447
0.788375
0.789859
0.788617
0.789476
0.789629
0.789
0.789719
0.789997
0.789391
0.791074
0.795641
0.790153
0.797706
0.79746
0.79932
0.80174
0.79246
0.79941
0.796901
0.807409
0.797308
0.797133
0.796453
0.79808
0.81014
0.813067
0.798283
0.797465
0.794405
0.797284
0.811284
0.795065
0.789704
0.808775
0.808296
0.798836
0.842382
0.842819
0.842826
0.83884
0.84754
0.837099
0.842885
0.844685
0.842674
0.837796
0.839496
0.837904
0.840564
0.844398
0.841927
0.835982
0.835195
0.829872
0.833675
0.828864
0.829708
0.830065
0.833461
0.835966
0.828573
0.82833
0.827839
0.827423
0.827179
0.827046
0.827433
0.827128
0.826984
0.826906
0.827045
0.82691
0.827067
0.826856
0.827079
0.826825
0.826792
0.826814
0.826786
0.826826
0.826747
0.8268
0.826745
0.826774
0.8268
0.826782
0.82675
0.826795
0.826764
0.826827
0.826773
0.826785
0.826777
0.826784
0.82683
0.826864
0.826815
0.826945
0.82681
0.827084
0.826809
0.827739
0.826841
0.82703
0.827662
0.827273
0.827107
0.827178
0.827428
0.827487
0.828166
0.828074
0.835086
0.833929
0.829625
0.829753
0.828504
0.833154
0.829778
0.835051
0.835927
0.841752
0.844548
0.841381
0.836406
0.840383
0.83664
0.843228
0.846547
0.841956
0.83709
0.851737
0.839136
0.838225
0.838784
0.83636
0.872359
0.867655
0.870357
0.864768
0.873764
0.859981
0.871208
0.872289
0.872454
0.864155
0.866778
0.86466
0.866829
0.873826
0.87235
0.868029
0.861681
0.866154
0.865059
0.865362
0.863234
0.865607
0.868631
0.870877
0.866193
0.865017
0.865643
0.865601
0.864891
0.865526
0.865576
0.865526
0.865532
0.86494
0.865081
0.864922
0.865132
0.864893
0.865255
0.865233
0.864935
0.864939
0.864937
0.865009
0.864925
0.865015
0.86492
0.865142
0.865143
0.865147
0.864923
0.864951
0.86493
0.86508
0.865045
0.864925
0.864911
0.864922
0.865135
0.865144
0.864937
0.865035
0.864904
0.865114
0.864856
0.865431
0.864846
0.86563
0.86564
0.865284
0.865587
0.865602
0.864795
0.865717
0.865479
0.864982
0.870189
0.869326
0.865974
0.863294
0.865325
0.864748
0.865546
0.861825
0.867936
0.869519
0.873358
0.866745
0.86558
0.870364
0.863701
0.871842
0.8726
0.870438
0.861942
0.873251
0.867214
0.867415
0.869291
0.868887
0.873385
0.867961
0.870636
0.866288
0.872799
0.861775
0.871214
0.874113
0.872289
0.864193
0.873096
0.86713
0.867882
0.873355
0.873591
0.867488
0.866063
0.866193
0.865087
0.865383
0.86463
0.865837
0.868856
0.870839
0.866017
0.865083
0.865505
0.864943
0.86488
0.864993
0.865187
0.865061
0.86499
0.864989
0.86497
0.864983
0.864975
0.864956
0.865128
0.86499
0.864957
0.864974
0.864957
0.865024
0.86495
0.864989
0.864946
0.864978
0.865007
0.864981
0.864949
0.864976
0.86496
0.86501
0.86498
0.86494
0.864952
0.864933
0.865027
0.864993
0.864992
0.865058
0.864977
0.864946
0.86492
0.865248
0.864894
0.865029
0.865344
0.865092
0.865065
0.864996
0.864837
0.865685
0.865544
0.865007
0.87017
0.869344
0.865982
0.864676
0.865348
0.864778
0.86575
0.866443
0.867499
0.873385
0.874999
0.868568
0.867778
0.871723
0.863727
0.872642
0.871846
0.870374
0.862359
0.871652
0.868321
0.868264
0.869428
0.868937
0.873871
0.87056
0.873422
0.870576
0.87786
0.864895
0.87281
0.872292
0.874439
0.867629
0.873912
0.872423
0.871973
0.876573
0.873355
0.872931
0.871854
0.869939
0.872203
0.872061
0.869879
0.872935
0.874702
0.875156
0.873586
0.870483
0.870168
0.870199
0.870106
0.870282
0.870125
0.870352
0.870113
0.870562
0.870315
0.870657
0.870315
0.870425
0.870407
0.870414
0.870347
0.870471
0.870394
0.870438
0.870376
0.870457
0.870389
0.870384
0.870398
0.870384
0.870429
0.8704
0.87043
0.870419
0.870418
0.870323
0.870476
0.870282
0.870533
0.87024
0.87056
0.870234
0.870513
0.870152
0.870376
0.870127
0.87027
0.870246
0.870752
0.870213
0.870373
0.870126
0.870213
0.872404
0.872413
0.870421
0.874548
0.874014
0.873088
0.869951
0.87194
0.872069
0.869614
0.872123
0.872885
0.874747
0.87339
0.873542
0.871137
0.871685
0.867058
0.871845
0.876842
0.871844
0.86439
0.878197
0.87165
0.871573
0.871629
0.872193
0.873935
0.869786
0.87356
0.870782
0.872839
0.864902
0.87229
0.877464
0.872291
0.867805
0.873243
0.872538
0.872203
0.873356
0.876014
0.871349
0.870752
0.870024
0.872011
0.87092
0.869899
0.871543
0.873626
0.874718
0.871197
0.870096
0.870891
0.870094
0.870359
0.870094
0.870506
0.870094
0.870343
0.870095
0.870439
0.870098
0.870583
0.870119
0.870531
0.870384
0.870387
0.87039
0.870451
0.870423
0.870407
0.870433
0.870416
0.870403
0.870422
0.870404
0.870431
0.870423
0.870411
0.870469
0.870339
0.870464
0.870287
0.870469
0.870232
0.870525
0.870174
0.870572
0.870086
0.870677
0.870086
0.87084
0.870086
0.870436
0.870125
0.870425
0.87009
0.870427
0.870091
0.870595
0.87059
0.870454
0.874015
0.873813
0.871417
0.869972
0.870952
0.871883
0.869909
0.87091
0.87142
0.873404
0.877537
0.872269
0.871087
0.872815
0.866951
0.874407
0.871848
0.872516
0.863746
0.871654
0.871953
0.87117
0.871459
0.871636
0.873922
0.872203
0.87442
0.871124
0.878788
0.864894
0.873446
0.872293
0.875305
0.868573
0.873898
0.872495
0.873354
0.877815
0.873356
0.873544
0.871221
0.873584
0.873955
0.874158
0.872295
0.874711
0.875193
0.875961
0.875193
0.872467
0.872866
0.872417
0.872784
0.872441
0.872929
0.872542
0.872767
0.872568
0.872986
0.87277
0.873154
0.872809
0.873132
0.872665
0.872908
0.872853
0.873073
0.87281
0.872861
0.872809
0.872882
0.872815
0.872829
0.872824
0.872838
0.872867
0.872838
0.8729
0.872828
0.872915
0.872832
0.872931
0.872817
0.873024
0.872911
0.873108
0.872942
0.873126
0.872632
0.873177
0.872534
0.873071
0.872835
0.873005
0.872595
0.87274
0.872561
0.872925
0.872547
0.874183
0.875122
0.87435
0.874378
0.872222
0.873996
0.873784
0.873561
0.87139
0.873403
0.876074
0.873408
0.8738
0.871274
0.871731
0.867854
0.871846
0.878346
0.871846
0.86379
0.879132
0.871651
0.871272
0.87164
0.873002
0.874138
0.87353
0.874317
0.871329
0.872952
0.865001
0.872291
0.87819
0.872292
0.868765
0.873244
0.871642
0.873731
0.873357
0.876513
0.872247
0.871249
0.872319
0.874161
0.872793
0.872315
0.87299
0.87528
0.875212
0.873223
0.872572
0.87236
0.87266
0.87236
0.872709
0.872365
0.872832
0.872364
0.872826
0.872365
0.872882
0.872506
0.872979
0.872605
0.872908
0.872657
0.872954
0.872718
0.872909
0.872767
0.87291
0.872807
0.87286
0.872837
0.872855
0.872857
0.872857
0.872894
0.872827
0.872889
0.872802
0.872921
0.872773
0.872916
0.872737
0.872958
0.8727
0.873007
0.872669
0.872945
0.872474
0.872745
0.872458
0.873008
0.87253
0.872682
0.87253
0.872676
0.872533
0.87272
0.872553
0.874434
0.875079
0.872761
0.872235
0.872768
0.874066
0.872232
0.871397
0.872321
0.873413
0.878078
0.873391
0.871242
0.873328
0.867794
0.874753
0.871849
0.872997
0.863747
0.871655
0.872172
0.871171
0.872398
0.871641
0.874703
0.874542
0.87461
0.871722
0.878953
0.865369
0.873531
0.872294
0.875532
0.868859
0.87443
0.871679
0.873355
0.878023
0.873356
0.873559
0.871889
0.874305
0.874552
0.874305
0.874305
0.87352
0.875212
0.875989
0.875212
0.873503
0.873742
0.874022
0.87376
0.874074
0.873872
0.874215
0.873811
0.87419
0.873846
0.87421
0.873955
0.874255
0.874018
0.874261
0.874058
0.874229
0.874048
0.874203
0.874062
0.874229
0.874066
0.874198
0.87406
0.874184
0.874173
0.874217
0.874274
0.874192
0.874356
0.874208
0.874387
0.8742
0.874392
0.874121
0.874425
0.874101
0.874443
0.874079
0.87444
0.874104
0.874388
0.873794
0.874324
0.873901
0.874045
0.873799
0.874108
0.873799
0.873732
0.874434
0.875199
0.874434
0.873962
0.873389
0.874352
0.87395
0.874029
0.871987
0.873411
0.876276
0.873416
0.873849
0.871372
0.87177
0.868131
0.871847
0.878758
0.871846
0.864656
0.879223
0.871652
0.871875
0.871646
0.873231
0.8747
0.87464
0.874647
0.871898
0.872978
0.865446
0.872291
0.878101
0.872292
0.86897
0.873244
0.871642
0.87368
0.873357
0.876555
0.872609
0.871918
0.873323
0.874255
0.874372
0.873513
0.873587
0.875886
0.875232
0.87431
0.873633
0.874077
0.873633
0.874171
0.873633
0.874217
0.873677
0.874155
0.873706
0.874135
0.873725
0.874157
0.873883
0.87422
0.873952
0.874254
0.873972
0.874243
0.873981
0.874246
0.873999
0.874225
0.874035
0.874211
0.874064
0.874144
0.874111
0.874087
0.874177
0.874032
0.87426
0.874021
0.874275
0.873967
0.874268
0.873919
0.874301
0.873877
0.874302
0.873829
0.874461
0.873728
0.874008
0.873729
0.874116
0.873722
0.874163
0.873722
0.874359
0.873689
0.873908
0.874532
0.875222
0.873392
0.87341
0.873788
0.874392
0.872997
0.871984
0.872602
0.873415
0.878122
0.873414
0.871387
0.873206
0.868098
0.874702
0.87185
0.873084
0.866538
0.871655
0.872274
0.871646
0.8725
0.871641
0.874957
0.874594
0.874688
0.8723
0.879017
0.865719
0.873482
0.872294
0.87548
0.869388
0.874244
0.871806
0.873355
0.877959
0.873356
0.873518
0.872438
0.874724
0.874715
0.874975
0.874715
0.87392
0.875232
0.876145
0.875232
0.874167
0.874829
0.874523
0.874829
0.874523
0.874848
0.874524
0.874831
0.874523
0.874888
0.874524
0.874823
0.874524
0.874921
0.874533
0.874965
0.874536
0.874965
0.874549
0.874988
0.874565
0.875006
0.874601
0.875036
0.874609
0.875061
0.874612
0.875083
0.874618
0.875099
0.874647
0.875096
0.874704
0.875061
0.874727
0.875036
0.874765
0.874986
0.874763
0.874911
0.874844
0.874756
0.874732
0.874692
0.874801
0.874687
0.874753
0.87468
0.874828
0.874417
0.874531
0.875272
0.874531
0.873985
0.874115
0.874524
0.874159
0.874188
0.872472
0.873413
0.876291
0.873416
0.873895
0.87141
0.871803
0.868378
0.871847
0.878721
0.871847
0.868273
0.879204
0.871652
0.872051
0.871646
0.873409
0.874701
0.874619
0.874539
0.872365
0.872997
0.865774
0.872291
0.878256
0.872292
0.869398
0.873244
0.871795
0.873556
0.873357
0.876447
0.87285
0.872474
0.873792
0.875003
0.874691
0.874121
0.874011
0.87594
0.87525
0.874957
0.874206
0.874351
0.874897
0.874475
0.874891
0.874486
0.875007
0.874487
0.874988
0.874488
0.874982
0.874483
0.875059
0.874518
0.875084
0.874524
0.875076
0.874526
0.875065
0.87453
0.875086
0.874563
0.875097
0.87458
0.875116
0.874598
0.875108
0.874607
0.875103
0.874614
0.875093
0.874629
0.875028
0.874633
0.874939
0.874641
0.874848
0.874652
0.874755
0.87478
0.874791
0.874719
0.874612
0.874899
0.87461
0.874779
0.874591
0.87477
0.874555
0.874201
0.874696
0.874688
0.875197
0.873808
0.874009
0.874251
0.874393
0.873383
0.872463
0.872773
0.873415
0.878034
0.873414
0.871389
0.873485
0.868504
0.874514
0.87185
0.873084
0.867987
0.871655
0.872379
0.871646
0.872467
0.871641
0.875054
0.874538
0.874795
0.872679
0.878756
0.866004
0.873469
0.872294
0.875297
0.868684
0.874116
0.872466
0.873354
0.877844
0.873355
0.873462
0.872826
0.874919
0.875248
0.875067
0.875096
0.874354
0.87525
0.876047
0.87525
0.87463
0.875132
0.875348
0.87514
0.875368
0.875153
0.875376
0.87514
0.875353
0.875133
0.87535
0.875114
0.875351
0.875105
0.875352
0.875098
0.875332
0.875077
0.875329
0.875114
0.875364
0.875114
0.875351
0.875117
0.875294
0.875117
0.875209
0.875125
0.875137
0.875126
0.875087
0.875117
0.875073
0.875114
0.874997
0.87512
0.874955
0.875129
0.874904
0.875202
0.874899
0.875153
0.874899
0.875136
0.874899
0.875074
0.874899
0.874984
0.874862
0.875076
0.874842
0.875153
0.874688
0.874762
0.874499
0.87463
0.874413
0.874356
0.873348
0.873326
0.876215
0.873415
0.873896
0.871836
0.871836
0.868657
0.871847
0.878657
0.871846
0.867105
0.879086
0.871651
0.872428
0.871646
0.873435
0.874701
0.874712
0.874699
0.872726
0.87304
0.866039
0.872291
0.878104
0.872292
0.868754
0.873213
0.872597
0.873583
0.873356
0.876293
0.873003
0.872786
0.874198
0.875005
0.875301
0.874338
0.874376
0.875874
0.875302
0.875299
0.874614
0.875194
0.875087
0.875439
0.87511
0.875472
0.875154
0.875427
0.875138
0.875474
0.875101
0.87538
0.875109
0.875435
0.875117
0.875466
0.875111
0.875467
0.875103
0.875445
0.875074
0.875416
0.875067
0.875376
0.875093
0.875333
0.87512
0.875246
0.875129
0.875168
0.875123
0.875108
0.875116
0.875059
0.875113
0.874999
0.87513
0.87494
0.875129
0.874875
0.875235
0.874877
0.875156
0.874896
0.875138
0.874872
0.875042
0.874865
0.874984
0.874321
0.874826
0.874688
0.875044
0.873997
0.873984
0.87434
0.874222
0.873542
0.872897
0.872913
0.873415
0.877913
0.873414
0.871882
0.87353
0.868672
0.874383
0.871849
0.873104
0.866222
0.871655
0.872334
0.871545
0.872581
0.871641
0.875317
0.8747
0.874877
0.872742
0.878623
0.865436
0.8735
0.872293
0.875166
0.869582
0.87308
0.872345
0.873354
0.877711
0.873355
0.873435
0.872784
0.87491
0.875301
0.875196
0.875233
0.874523
0.875302
0.875989
0.875341
0.875521
0.87538
0.875499
0.87542
0.875508
0.875454
0.875513
0.875441
0.875508
0.875406
0.875499
0.875336
0.875487
0.87532
0.87549
0.875299
0.875489
0.875245
0.875493
0.875235
0.87547
0.875184
0.875418
0.875159
0.875393
0.87517
0.875356
0.875161
0.875249
0.875176
0.875194
0.875192
0.875111
0.875174
0.875103
0.875182
0.875001
0.875206
0.874975
0.875259
0.874926
0.875246
0.874917
0.875232
0.874908
0.875138
0.8749
0.875093
0.874873
0.874455
0.874655
0.874996
0.874655
0.874157
0.873885
0.874442
0.874243
0.874137
0.873626
0.873169
0.876097
0.873415
0.873863
0.871048
0.871836
0.868695
0.871846
0.878625
0.871846
0.866157
0.878667
0.871651
0.872031
0.871645
0.873437
0.874701
0.874847
0.874699
0.872687
0.87309
0.865461
0.872291
0.878063
0.872292
0.868922
0.872519
0.872341
0.873721
0.873355
0.876208
0.872795
0.872786
0.874193
0.875187
0.875396
0.874665
0.874508
0.87577
0.875302
0.875399
0.874875
0.875335
0.87542
0.875495
0.875441
0.875506
0.875466
0.875506
0.875438
0.875499
0.875401
0.87549
0.875356
0.875479
0.875329
0.875496
0.875308
0.875494
0.875247
0.875492
0.87522
0.875463
0.875184
0.875435
0.875178
0.875393
0.875195
0.875311
0.875176
0.875246
0.875198
0.875204
0.875191
0.875112
0.875157
0.875064
0.875203
0.875004
0.875218
0.874973
0.875266
0.874928
0.875234
0.87495
0.875232
0.87491
0.87512
0.87487
0.875087
0.874315
0.874914
0.874691
0.874976
0.8737
0.873873
0.874236
0.874115
0.873771
0.872987
0.872366
0.873414
0.877791
0.873413
0.870964
0.873616
0.868692
0.874257
0.871849
0.872918
0.866176
0.871654
0.872646
0.87159
0.872728
0.87164
0.875577
0.874569
0.875156
0.872183
0.878318
0.865925
0.873652
0.872294
0.875151
0.868863
0.872895
0.872909
0.873353
0.877597
0.873354
0.872857
0.873093
0.874905
0.875342
0.875247
0.874028
0.87498
0.87525
0.875879
0.87525
0.874711
0.875434
0.875537
0.875458
0.87555
0.875481
0.875555
0.875472
0.875548
0.87545
0.875538
0.875407
0.875515
0.875356
0.875501
0.875336
0.875489
0.875317
0.875493
0.875247
0.87547
0.875236
0.875418
0.875184
0.875393
0.875204
0.875345
0.875205
0.875249
0.875198
0.875194
0.875217
0.875168
0.87519
0.87508
0.87522
0.875041
0.875216
0.874985
0.875219
0.874984
0.875215
0.874961
0.875214
0.874956
0.875123
0.87489
0.87506
0.874873
0.874912
0.874835
0.8749
0.874691
0.873903
0.873679
0.874365
0.874094
0.874075
0.873415
0.872349
0.876112
0.873415
0.873981
0.871794
0.87179
0.869429
0.871845
0.878396
0.871845
0.866138
0.87858
0.871649
0.872011
0.871639
0.873559
0.874701
0.875089
0.874698
0.87216
0.873184
0.865974
0.87229
0.877781
0.872291
0.86958
0.872596
0.87162
0.873847
0.873355
0.876145
0.872799
0.873061
0.8746
0.875128
0.875349
0.874165
0.874518
0.875755
0.87525
0.875412
0.87452
0.875427
0.875463
0.875563
0.875486
0.875556
0.875528
0.875566
0.875466
0.87555
0.87543
0.875516
0.875412
0.875515
0.875356
0.875505
0.875341
0.87549
0.875318
0.875477
0.875236
0.875427
0.875235
0.875399
0.875189
0.875338
0.875193
0.875263
0.875207
0.875195
0.875204
0.875158
0.875249
0.875146
0.87519
0.875047
0.875228
0.875032
0.875224
0.874989
0.875245
0.874988
0.875211
0.874952
0.875153
0.874891
0.875071
0.874824
0.874962
0.874605
0.874885
0.874652
0.874832
0.873538
0.873834
0.8741
0.874052
0.873615
0.873177
0.872352
0.873412
0.877692
0.873406
0.870955
0.87343
0.868899
0.874368
0.871847
0.872985
0.866175
0.871653
0.872335
0.871589
0.872426
0.871634
0.875352
0.874694
0.875164
0.87264
0.878228
0.865857
0.873239
0.872293
0.875094
0.869943
0.872835
0.87158
0.873353
0.877474
0.873354
0.873402
0.87314
0.874663
0.875343
0.875247
0.874294
0.874965
0.875232
0.875847
0.875232
0.874783
0.875426
0.875552
0.875458
0.875574
0.875147
0.875599
0.875491
0.875571
0.875446
0.875546
0.8754
0.875501
0.875356
0.875494
0.875336
0.875478
0.875298
0.875413
0.875247
0.875389
0.875231
0.875329
0.875182
0.875317
0.875204
0.875263
0.875205
0.875208
0.875198
0.875133
0.875217
0.875165
0.875184
0.875055
0.87522
0.875041
0.875206
0.874985
0.874892
0.874984
0.875174
0.874961
0.875129
0.874956
0.87506
0.874889
0.875004
0.874871
0.874084
0.874787
0.874781
0.874697
0.873834
0.873831
0.874273
0.874006
0.873961
0.872055
0.872655
0.875766
0.873408
0.873826
0.870978
0.871748
0.868925
0.871845
0.878292
0.871844
0.866987
0.878486
0.871649
0.872012
0.871636
0.873538
0.874696
0.875387
0.8747
0.872945
0.87331
0.866216
0.87229
0.878027
0.87229
0.869685
0.872724
0.871786
0.8739
0.873354
0.875982
0.873044
0.872551
0.873837
0.875197
0.874953
0.87435
0.874458
0.875818
0.875232
0.875083
0.874893
0.875524
0.875437
0.875594
0.875456
0.875174
0.87551
0.875612
0.875496
0.875508
0.875407
0.875518
0.875373
0.875505
0.87534
0.875467
0.87531
0.875338
0.875247
0.875405
0.875229
0.875342
0.875134
0.875334
0.875165
0.87521
0.87516
0.875173
0.875109
0.87509
0.875138
0.875076
0.875126
0.875039
0.875186
0.875075
0.875173
0.87499
0.875174
0.874713
0.875219
0.874954
0.875072
0.874884
0.875067
0.874446
0.874647
0.874409
0.874321
0.873428
0.874135
0.874697
0.874237
0.873587
0.873764
0.87385
0.873969
0.873658
0.871996
0.872721
0.873404
0.87743
0.873388
0.871218
0.873256
0.869556
0.87397
0.871847
0.87289
0.867015
0.871652
0.872603
0.871582
0.872683
0.871638
0.875503
0.874701
0.875458
0.872984
0.878063
0.867354
0.873124
0.872292
0.875156
0.868833
0.872135
0.872536
0.873352
0.877262
0.873353
0.872842
0.872551
0.874942
0.875239
0.875191
0.874772
0.874564
0.875212
0.875806
0.875074
0.875116
0.874768
0.875564
0.87543
0.875547
0.875481
0.875599
0.875491
0.8755
0.875409
0.8755
0.874896
0.87547
0.874871
0.875384
0.875135
0.875381
0.875245
0.875365
0.875218
0.8753
0.875182
0.87521
0.874634
0.875249
0.874515
0.875168
0.875101
0.875096
0.875095
0.875029
0.875099
0.875043
0.875164
0.875055
0.875024
0.874989
0.874589
0.874974
0.875023
0.873833
0.875162
0.874907
0.874944
0.874521
0.873663
0.873457
0.873615
0.873403
0.873615
0.874246
0.874576
0.874053
0.874041
0.873576
0.873844
0.873684
0.87375
0.873018
0.872367
0.875817
0.87339
0.873527
0.870466
0.871702
0.869297
0.871844
0.877775
0.871843
0.867017
0.878195
0.871648
0.872005
0.871641
0.873668
0.874702
0.875597
0.8747
0.873378
0.873346
0.867124
0.872289
0.877461
0.87229
0.868828
0.872571
0.872664
0.873734
0.873354
0.875982
0.872904
0.872589
0.874593
0.874733
0.875232
0.87396
0.874256
0.875587
0.875212
0.875108
0.875086
0.874935
0.874864
0.875279
0.875423
0.875555
0.875487
0.875199
0.87481
0.875431
0.875378
0.875001
0.875328
0.874927
0.875284
0.875214
0.875247
0.875358
0.875114
0.875201
0.875083
0.8753
0.874876
0.874553
0.875095
0.874503
0.875094
0.874873
0.874888
0.874908
0.875072
0.874928
0.875055
0.875006
0.875094
0.874723
0.875135
0.874344
0.874806
0.874911
0.874099
0.874283
0.873995
0.874482
0.873615
0.873246
0.873615
0.873253
0.873615
0.873416
0.873615
0.87387
0.874041
0.873629
0.87371
0.873738
0.873296
0.87328
0.873102
0.872381
0.873385
0.877224
0.873357
0.870365
0.873127
0.86922
0.874146
0.871845
0.872819
0.867627
0.871651
0.87233
0.871646
0.872383
0.871641
0.875623
0.874701
0.875477
0.8725
0.877623
0.867078
0.873274
0.872292
0.875329
0.869619
0.872746
0.871307
0.873352
0.877139
0.873353
0.87252
0.872576
0.873624
0.874791
0.874731
0.873611
0.873642
0.875193
0.875776
0.875176
0.874342
0.875239
0.875361
0.875239
0.875175
0.875167
0.875521
0.875417
0.874982
0.875345
0.875477
0.875345
0.875398
0.875279
0.875361
0.875254
0.875388
0.875232
0.875126
0.875073
0.875077
0.874337
0.874847
0.8748
0.87426
0.874854
0.87458
0.874888
0.874898
0.874984
0.874964
0.87499
0.874938
0.874832
0.874173
0.874848
0.874942
0.874848
0.874722
0.874964
0.874473
0.873615
0.873433
0.873719
0.873216
0.873615
0.873262
0.873615
0.873415
0.873616
0.87334
0.873881
0.873589
0.873677
0.873424
0.873756
0.873582
0.873338
0.872071
0.872747
0.875639
0.873359
0.873465
0.870856
0.871649
0.869827
0.871842
0.87769
0.871842
0.867538
0.877966
0.871648
0.872107
0.871642
0.873552
0.874702
0.875479
0.874701
0.872424
0.873309
0.867302
0.872289
0.877405
0.87229
0.869025
0.872588
0.871255
0.873899
0.873354
0.875926
0.871667
0.872171
0.874378
0.874748
0.874736
0.873725
0.873705
0.875582
0.875193
0.875303
0.874219
0.875014
0.875233
0.875302
0.874996
0.875188
0.874714
0.874675
0.875032
0.875387
0.874797
0.875374
0.874759
0.875374
0.87516
0.875225
0.874537
0.87453
0.87461
0.874982
0.874621
0.874336
0.874795
0.874734
0.874305
0.874848
0.874235
0.874848
0.874807
0.874861
0.874938
0.874799
0.874969
0.873535
0.87389
0.873226
0.873496
0.874459
0.87426
0.874194
0.874417
0.873788
0.873615
0.873402
0.873615
0.873314
0.873615
0.873399
0.873628
0.873339
0.873615
0.873562
0.873648
0.873478
0.873677
0.873474
0.873941
0.873582
0.872043
0.872374
0.873353
0.876945
0.873135
0.869865
0.872846
0.869221
0.873933
0.871845
0.87315
0.867712
0.87165
0.872579
0.871637
0.872454
0.871639
0.875708
0.874679
0.875205
0.872873
0.876853
0.867157
0.872913
0.872291
0.875218
0.868924
0.872617
0.871726
0.873352
0.877136
0.873353
0.870776
0.87239
0.874089
0.874687
0.874748
0.873656
0.874256
0.875167
0.875562
0.875041
0.874729
0.874218
0.874379
0.874335
0.875106
0.875134
0.875104
0.874352
0.875013
0.874746
0.874832
0.874448
0.874801
0.874316
0.874196
0.874267
0.87451
0.874377
0.874576
0.873704
0.874588
0.874601
0.874632
0.874052
0.874611
0.874854
0.874349
0.873432
0.874615
0.873686
0.874198
0.874591
0.873837
0.873402
0.873277
0.873177
0.873433
0.87345
0.873216
0.873443
0.874364
0.874196
0.874137
0.873615
0.87338
0.873615
0.873399
0.873633
0.873457
0.873622
0.873335
0.873615
0.873521
0.87365
0.873451
0.8737
0.873582
0.873871
0.872283
0.871947
0.87543
0.873315
0.873301
0.869882
0.871595
0.869241
0.871841
0.877616
0.871841
0.868563
0.87771
0.871647
0.87216
0.871642
0.873469
0.874702
0.873694
0.873452
0.872221
0.873183
0.867236
0.872288
0.877346
0.872289
0.86964
0.87241
0.870772
0.873729
0.873353
0.875615
0.870692
0.872141
0.872854
0.874694
0.87408
0.873349
0.874008
0.875308
0.875167
0.874124
0.87328
0.874207
0.874216
0.874766
0.87501
0.875056
0.87501
0.874651
0.874924
0.874068
0.874198
0.874487
0.874576
0.874482
0.873736
0.873749
0.873735
0.874441
0.87445
0.873715
0.87443
0.874572
0.873711
0.874145
0.874367
0.87404
0.873975
0.873218
0.874135
0.873585
0.874128
0.873763
0.873157
0.873038
0.873153
0.873244
0.873295
0.873216
0.873204
0.873861
0.874088
0.873974
0.87362
0.873437
0.873616
0.873295
0.873633
0.873457
0.873711
0.873302
0.873615
0.873366
0.873636
0.873269
0.873701
0.873383
0.873937
0.873244
0.872161
0.871997
0.873309
0.876928
0.873225
0.870213
0.872829
0.869801
0.87377
0.871843
0.872454
0.868055
0.87165
0.872552
0.871644
0.872422
0.87164
0.875715
0.872379
0.87337
0.872131
0.876459
0.867878
0.873121
0.872291
0.87511
0.868794
0.872551
0.870703
0.873225
0.876948
0.873352
0.870832
0.871391
0.873729
0.874328
0.874132
0.873101
0.872946
0.875114
0.8753
0.874644
0.873256
0.873512
0.87441
0.874452
0.874059
0.874061
0.874987
0.874827
0.874213
0.874111
0.873986
0.87394
0.873765
0.873727
0.873874
0.873836
0.873873
0.874208
0.874441
0.874127
0.874411
0.873899
0.873805
0.873887
0.873142
0.872495
0.872557
0.873485
0.873803
0.873704
0.873163
0.873146
0.873297
0.873153
0.873039
0.873344
0.873134
0.873191
0.873185
0.873299
0.873267
0.873967
0.873456
0.873613
0.873438
0.873615
0.873451
0.873645
0.873313
0.873624
0.873374
0.873625
0.873273
0.873649
0.873349
0.873688
0.873527
0.873715
0.871032
0.871039
0.875356
0.873268
0.872135
0.869264
0.87154
0.869032
0.87184
0.877213
0.87184
0.867756
0.877542
0.871647
0.872218
0.871641
0.873504
0.874702
0.87203
0.873305
0.872201
0.873088
0.866683
0.872286
0.877174
0.872287
0.86885
0.872479
0.871096
0.871649
0.873353
0.875935
0.870595
0.871411
0.873286
0.873187
0.873881
0.873129
0.872905
0.875214
0.875114
0.874527
0.873679
0.873425
0.874392
0.873746
0.873785
0.873645
0.874272
0.874564
0.873903
0.873956
0.873959
0.873921
0.873949
0.873762
0.873854
0.873874
0.873836
0.87358
0.873911
0.874094
0.874014
0.873564
0.872897
0.872799
0.872398
0.872416
0.872399
0.873351
0.873141
0.873526
0.872709
0.873297
0.873373
0.873297
0.873153
0.873201
0.873235
0.873129
0.873193
0.873119
0.873888
0.873899
0.873808
0.873486
0.87367
0.87349
0.87363
0.873385
0.873632
0.873394
0.873689
0.873414
0.873649
0.873352
0.873696
0.873442
0.873769
0.873481
0.871184
0.871007
0.873261
0.876698
0.872149
0.869158
0.872446
0.868967
0.873833
0.871842
0.873108
0.868757
0.87165
0.872569
0.871645
0.872461
0.871641
0.875749
0.871678
0.873054
0.872515
0.876619
0.86659
0.872954
0.872289
0.875311
0.869413
0.87223
0.870033
0.871397
0.876733
0.873352
0.87068
0.871271
0.872196
0.873152
0.872877
0.872338
0.873182
0.874312
0.875093
0.874101
0.8737
0.873817
0.874167
0.874152
0.873612
0.873648
0.873645
0.873637
0.873921
0.873903
0.873986
0.873959
0.873986
0.873949
0.873921
0.873753
0.873873
0.873673
0.872818
0.873994
0.872544
0.872402
0.872166
0.872398
0.872244
0.872451
0.872294
0.872452
0.872169
0.872621
0.872759
0.873045
0.873084
0.873369
0.873297
0.873307
0.87321
0.873401
0.873133
0.873204
0.873791
0.873867
0.873476
0.873491
0.873509
0.873753
0.873422
0.873655
0.873418
0.873682
0.87342
0.873657
0.873393
0.873748
0.873356
0.87375
0.873481
0.873511
0.870086
0.871248
0.875793
0.873243
0.87212
0.869597
0.871495
0.869693
0.871838
0.877058
0.871838
0.867599
0.877276
0.871647
0.872248
0.871642
0.873425
0.874702
0.870903
0.872999
0.871805
0.873036
0.867313
0.872286
0.877014
0.872287
0.869013
0.872175
0.869982
0.871028
0.873352
0.875535
0.870803
0.870867
0.873149
0.873189
0.873151
0.872252
0.872306
0.874109
0.873417
0.873534
0.873466
0.873313
0.873966
0.873904
0.873614
0.873646
0.873648
0.873621
0.873903
0.873921
0.87372
0.873108
0.873311
0.873779
0.873382
0.873726
0.873379
0.872821
0.872905
0.873059
0.872666
0.872224
0.872398
0.87222
0.87244
0.872304
0.872549
0.872166
0.872108
0.872393
0.872321
0.872318
0.873143
0.873125
0.873327
0.87325
0.873352
0.873298
0.873321
0.873196
0.873312
0.873579
0.873491
0.873517
0.873697
0.873511
0.873662
0.873489
0.873695
0.873384
0.87372
0.873309
0.87373
0.873422
0.873748
0.873455
0.873764
0.873455
0.870055
0.871445
0.873242
0.876883
0.871622
0.868748
0.872218
0.868712
0.873587
0.87184
0.872621
0.867868
0.87165
0.872533
0.870549
0.872421
0.871638
0.875699
0.870659
0.872688
0.871537
0.87615
0.869001
0.872903
0.872288
0.875076
0.868913
0.871913
0.870361
0.870317
0.87669
0.873351
0.870654
0.871165
0.872784
0.873158
0.873185
0.872429
0.872252
0.87347
0.87341
0.872724
0.87298
0.871764
0.87217
0.87262
0.873646
0.873659
0.873646
0.873638
0.873668
0.873903
0.873728
0.872756
0.8733
0.872558
0.873087
0.872569
0.873208
0.872507
0.872814
0.872411
0.872404
0.872411
0.872312
0.872587
0.872367
0.872567
0.872289
0.872108
0.872312
0.872287
0.872312
0.872559
0.87292
0.873397
0.87317
0.873494
0.873325
0.873316
0.873205
0.873214
0.873495
0.873487
0.873518
0.87373
0.87351
0.87381
0.873511
0.873686
0.873444
0.873703
0.873357
0.87373
0.873436
0.873923
0.873422
0.873785
0.873455
0.873704
0.870533
0.871292
0.87569
0.873243
0.871408
0.868756
0.871451
0.868714
0.871837
0.876988
0.871837
0.868472
0.877575
0.871647
0.868365
0.871635
0.873488
0.874702
0.870285
0.87232
0.872196
0.872991
0.86884
0.872285
0.876621
0.872286
0.869197
0.871571
0.869093
0.870504
0.873352
0.875587
0.870644
0.871125
0.871561
0.873233
0.87277
0.871467
0.872373
0.872788
0.872792
0.872286
0.871783
0.871812
0.871705
0.872805
0.873659
0.873667
0.873128
0.873408
0.873522
0.873143
0.872949
0.872842
0.872501
0.872473
0.872172
0.872172
0.872255
0.872546
0.872596
0.872699
0.87241
0.872517
0.87241
0.872432
0.872565
0.872421
0.872577
0.872559
0.872323
0.872312
0.872478
0.872465
0.872479
0.873322
0.873398
0.873275
0.873544
0.873519
0.873306
0.87352
0.873538
0.873484
0.87373
0.873518
0.873729
0.873516
0.873702
0.87347
0.873708
0.873437
0.873762
0.873355
0.874024
0.873436
0.873894
0.873422
0.874023
0.87342
0.87052
0.870754
0.873242
0.876746
0.870808
0.868883
0.872087
0.869388
0.87355
0.871839
0.872837
0.867911
0.87165
0.872628
0.868126
0.872308
0.871632
0.87566
0.86923
0.872467
0.870957
0.875777
0.868166
0.873206
0.872287
0.874966
0.868782
0.871594
0.869025
0.870166
0.876488
0.873351
0.87072
0.870773
0.872554
0.873158
0.873197
0.871437
0.871511
0.872768
0.87174
0.871659
0.871706
0.871708
0.871793
0.871657
0.872979
0.873343
0.872242
0.87198
0.872047
0.872812
0.872178
0.872392
0.872231
0.872351
0.872172
0.87223
0.872104
0.872088
0.872699
0.872724
0.872647
0.872416
0.872615
0.872581
0.872555
0.872581
0.872579
0.872682
0.872312
0.872499
0.872469
0.872479
0.872517
0.873098
0.873253
0.87341
0.873323
0.873609
0.87352
0.873666
0.873498
0.873604
0.87352
0.873747
0.873516
0.873734
0.873448
0.873702
0.873462