/*--------------------------------*- C++ -*----------------------------------*\
| =========                 |                                                 |
| \\      /  F ield         | OpenFOAM: The Open Source CFD Toolbox           |
|  \\    /   O peration     | Version:  2312                                  |
|   \\  /    A nd           | Website:  www.openfoam.com                      |
|    \\/     M anipulation  |                                                 |
\*---------------------------------------------------------------------------*/
FoamFile
{
    version     2.0;
    format      ascii;
    arch        "LSB;label=32;scalar=64";
    class       volScalarField;
    location    "1";
    object      alpha.airMean;
}
// * * * * * * * * * * * * * * * * * * * * * * * * * * * * * * * * * * * * * //

dimensions      [0 0 0 0 0 0 0];

internalField   nonuniform List<scalar> 
50000
(
0.208069
0.202938
0.198838
0.20889
0.206949
0.201193
0.205961
0.206991
0.207773
0.20487
0.203907
0.20312
0.207143
0.207161
0.207847
0.206617
0.204642
0.208582
0.207979
0.209198
0.207837
0.207723
0.208419
0.208127
0.209566
0.208634
0.209049
0.209727
0.209634
0.209627
0.209879
0.209898
0.209781
0.209852
0.209948
0.209877
0.209626
0.209895
0.209908
0.209882
0.209912
0.209911
0.209948
0.209894
0.209951
0.20992
0.209942
0.209937
0.209884
0.209929
0.209932
0.209926
0.209924
0.209904
0.20992
0.209934
0.209921
0.209936
0.20988
0.209871
0.209886
0.209934
0.209931
0.209623
0.209952
0.209764
0.209915
0.20974
0.209775
0.2099
0.209584
0.20956
0.209754
0.209319
0.208704
0.209664
0.208247
0.208304
0.208133
0.207852
0.209113
0.208059
0.208594
0.204759
0.20631
0.207888
0.207153
0.207465
0.202883
0.204158
0.204423
0.207868
0.206709
0.205945
0.201704
0.206691
0.209223
0.198851
0.205991
0.206305
0.165109
0.168136
0.16769
0.168107
0.162701
0.169166
0.167006
0.163875
0.167138
0.169378
0.169145
0.169867
0.169372
0.166851
0.167152
0.170338
0.170617
0.171462
0.171123
0.17187
0.171791
0.171745
0.170996
0.170637
0.17178
0.171965
0.172016
0.172044
0.172101
0.17209
0.172014
0.172038
0.172066
0.172059
0.172039
0.172086
0.172074
0.172113
0.172042
0.172092
0.172116
0.172109
0.172121
0.17211
0.172137
0.17212
0.17213
0.17213
0.172105
0.17213
0.172115
0.172126
0.172114
0.172117
0.172112
0.172122
0.172107
0.172122
0.172093
0.172106
0.172091
0.172089
0.17213
0.172088
0.17212
0.171933
0.172109
0.172082
0.171949
0.17203
0.172085
0.172088
0.172077
0.172058
0.17198
0.171833
0.170846
0.170896
0.171798
0.171803
0.171885
0.1712
0.171392
0.170664
0.170384
0.167298
0.166682
0.169245
0.169896
0.169259
0.169492
0.167744
0.163509
0.167211
0.168982
0.162178
0.168313
0.168431
0.167232
0.169304
0.1372
0.140155
0.14084
0.138272
0.134924
0.14159
0.137527
0.135093
0.136556
0.139834
0.138349
0.139539
0.138665
0.136526
0.136723
0.13876
0.140236
0.139145
0.139252
0.139121
0.139243
0.139164
0.138443
0.138321
0.138723
0.139263
0.139196
0.139263
0.139288
0.139338
0.139151
0.139276
0.139306
0.139412
0.139331
0.139399
0.139367
0.139361
0.139281
0.13938
0.139335
0.139383
0.139306
0.139363
0.139311
0.139348
0.139321
0.139326
0.139327
0.139331
0.139324
0.139328
0.139331
0.139327
0.139336
0.139326
0.13935
0.139314
0.139375
0.139312
0.139336
0.139307
0.139339
0.13932
0.139359
0.139115
0.139249
0.139238
0.139255
0.139216
0.139319
0.139249
0.139257
0.139037
0.139175
0.138841
0.138424
0.138419
0.139097
0.139239
0.139109
0.139316
0.139133
0.140235
0.138912
0.13681
0.136531
0.138672
0.13974
0.138384
0.139915
0.137067
0.135169
0.13747
0.141157
0.135152
0.137731
0.141729
0.137465
0.138459
0.133428
0.137197
0.136834
0.136357
0.131416
0.138271
0.135211
0.131531
0.134182
0.137282
0.135863
0.136849
0.136491
0.134115
0.134166
0.136668
0.136889
0.136704
0.136916
0.136857
0.136802
0.136863
0.136167
0.135957
0.136672
0.136852
0.136955
0.136871
0.137031
0.136898
0.137002
0.136885
0.13707
0.13694
0.137072
0.136952
0.137055
0.136958
0.136997
0.136951
0.137017
0.136937
0.137005
0.13693
0.136998
0.136935
0.136978
0.136959
0.136964
0.136979
0.136954
0.136975
0.136949
0.136976
0.136957
0.136984
0.136932
0.137018
0.136909
0.137021
0.136913
0.137016
0.136914
0.137052
0.136905
0.136959
0.13689
0.137031
0.136815
0.136989
0.136886
0.137006
0.136883
0.136872
0.136818
0.136774
0.136073
0.1361
0.136864
0.136822
0.136905
0.136952
0.136763
0.136791
0.136789
0.134286
0.133731
0.136354
0.137081
0.135972
0.137358
0.134654
0.13209
0.135183
0.137952
0.132038
0.136049
0.137548
0.135305
0.135686
0.129148
0.131891
0.132082
0.130948
0.127204
0.133123
0.130326
0.128254
0.129266
0.132591
0.131402
0.13192
0.130978
0.129337
0.130067
0.131487
0.131222
0.131318
0.131162
0.131133
0.131405
0.131315
0.130689
0.130583
0.130742
0.13165
0.131684
0.131711
0.131716
0.131768
0.131719
0.131787
0.131763
0.13186
0.131742
0.131854
0.131755
0.131835
0.131708
0.131832
0.131717
0.131809
0.131704
0.131791
0.131714
0.131755
0.131738
0.131739
0.131763
0.131747
0.131763
0.131744
0.131759
0.131763
0.131761
0.13177
0.131771
0.131767
0.131789
0.131773
0.131783
0.131771
0.13175
0.131828
0.131752
0.131779
0.131738
0.131803
0.131717
0.131754
0.131724
0.131706
0.131585
0.13133
0.13144
0.130955
0.130678
0.130762
0.131322
0.131558
0.131381
0.131397
0.13149
0.131213
0.131748
0.129535
0.130105
0.130751
0.132256
0.131632
0.132632
0.130092
0.127777
0.130463
0.133004
0.127444
0.13119
0.132516
0.131241
0.130874
0.128832
0.131961
0.131848
0.131234
0.128018
0.13301
0.130665
0.126747
0.129842
0.132323
0.131174
0.131742
0.131355
0.12998
0.129396
0.131546
0.131309
0.131438
0.13113
0.131329
0.131434
0.131373
0.130827
0.130749
0.131206
0.131468
0.131405
0.131439
0.131501
0.131471
0.131501
0.131495
0.131569
0.131482
0.131584
0.131474
0.131567
0.131438
0.131542
0.131428
0.131538
0.131412
0.131491
0.131402
0.131477
0.131423
0.131436
0.131464
0.131436
0.131478
0.131429
0.131474
0.131448
0.131449
0.131479
0.131453
0.131469
0.131474
0.131474
0.131487
0.131495
0.131484
0.131509
0.13146
0.131584
0.131385
0.13158
0.131476
0.13149
0.131474
0.131478
0.131464
0.131469
0.131396
0.131419
0.131253
0.130842
0.130754
0.131376
0.131445
0.131307
0.131221
0.131347
0.131443
0.131474
0.130123
0.128898
0.1315
0.131836
0.131291
0.132295
0.130209
0.128038
0.130552
0.132765
0.128613
0.131145
0.132323
0.131134
0.130497
0.128221
0.130631
0.131215
0.130091
0.126189
0.132025
0.129383
0.127701
0.128398
0.131363
0.130125
0.130798
0.129792
0.128256
0.129045
0.130301
0.130093
0.129649
0.129653
0.129639
0.130095
0.129989
0.129543
0.129412
0.129675
0.130166
0.130092
0.130193
0.130108
0.130242
0.130129
0.130276
0.130181
0.130312
0.130173
0.130299
0.130165
0.130245
0.130148
0.130232
0.130152
0.130223
0.130132
0.130207
0.130142
0.130173
0.13015
0.130172
0.130176
0.13019
0.130159
0.130192
0.13018
0.130189
0.130189
0.130188
0.130196
0.130195
0.130219
0.130201
0.130228
0.130171
0.130224
0.130189
0.130237
0.130142
0.130228
0.130167
0.130197
0.130133
0.130224
0.130132
0.130172
0.13013
0.130136
0.129741
0.129489
0.129632
0.130021
0.130138
0.129804
0.12982
0.12983
0.130076
0.130506
0.128452
0.129184
0.129686
0.131123
0.130666
0.131517
0.12928
0.12687
0.129585
0.131941
0.1264
0.13028
0.131581
0.130289
0.129604
0.127908
0.130747
0.131018
0.130289
0.127462
0.132044
0.129876
0.126048
0.129122
0.131374
0.130319
0.130591
0.130131
0.128999
0.128505
0.130293
0.130321
0.129899
0.129719
0.12991
0.130011
0.129955
0.129515
0.129575
0.129808
0.129916
0.130007
0.129899
0.130041
0.129903
0.130061
0.129922
0.130096
0.129947
0.130085
0.12996
0.130058
0.12998
0.130049
0.129966
0.130041
0.129954
0.130023
0.129954
0.130006
0.129962
0.129984
0.129983
0.130001
0.129994
0.130001
0.130016
0.13001
0.130017
0.130024
0.130015
0.130007
0.130048
0.130005
0.13006
0.130006
0.130061
0.130021
0.130025
0.129958
0.130002
0.129942
0.13005
0.129896
0.130042
0.129925
0.130021
0.129921
0.129956
0.129966
0.129808
0.129673
0.129514
0.129984
0.130017
0.129917
0.129781
0.129879
0.130368
0.130292
0.129261
0.12805
0.130246
0.130824
0.130122
0.131349
0.129411
0.127531
0.129708
0.131732
0.128173
0.130222
0.131527
0.130031
0.129588
0.127193
0.12999
0.130369
0.129187
0.125467
0.131203
0.128789
0.12718
0.127841
0.130796
0.129322
0.129913
0.12912
0.12746
0.128258
0.129413
0.129267
0.128884
0.128899
0.128929
0.128986
0.129133
0.128704
0.128662
0.128893
0.129051
0.129064
0.12909
0.129081
0.129109
0.129108
0.129166
0.129134
0.129184
0.129083
0.129199
0.129088
0.129201
0.12908
0.129188
0.129115
0.12917
0.129061
0.129155
0.129098
0.12913
0.129089
0.129125
0.129154
0.129136
0.129137
0.12916
0.129148
0.129173
0.129148
0.129173
0.129142
0.129195
0.129131
0.129214
0.129158
0.129224
0.129161
0.129192
0.129088
0.129153
0.129081
0.129187
0.129071
0.129143
0.129085
0.129136
0.129069
0.129133
0.129056
0.12896
0.128699
0.128773
0.129095
0.129087
0.128955
0.12892
0.128872
0.129243
0.129556
0.127687
0.128383
0.129006
0.130268
0.129787
0.13082
0.128693
0.126252
0.128927
0.131007
0.125687
0.129447
0.130964
0.129616
0.128549
0.127214
0.130022
0.130369
0.129335
0.126816
0.131118
0.129112
0.125463
0.128432
0.130569
0.12934
0.129831
0.129201
0.128174
0.127668
0.129369
0.129333
0.128845
0.128814
0.128757
0.128969
0.128913
0.1286
0.128605
0.128798
0.12881
0.128922
0.1288
0.128847
0.128839
0.128883
0.128834
0.128943
0.128888
0.128925
0.128833
0.128939
0.128825
0.128941
0.128841
0.128936
0.128848
0.128869
0.128817
0.128962
0.128808
0.128864
0.12884
0.128918
0.128846
0.128899
0.128844
0.128922
0.128852
0.128918
0.128888
0.128916
0.128854
0.128953
0.128854
0.128964
0.128869
0.128961
0.128859
0.128983
0.128791
0.128952
0.128879
0.128845
0.128834
0.128857
0.128806
0.128873
0.128895
0.128882
0.128778
0.128754
0.128564
0.128987
0.128921
0.128887
0.128814
0.128888
0.129348
0.129384
0.128365
0.127218
0.12931
0.130083
0.129312
0.130524
0.128718
0.126869
0.128919
0.130817
0.127455
0.129392
0.130861
0.129361
0.128738
0.126308
0.128894
0.129376
0.128357
0.124485
0.130027
0.127967
0.126247
0.127072
0.129379
0.1282
0.128993
0.128057
0.126592
0.127303
0.12839
0.128106
0.127715
0.127757
0.12778
0.127826
0.127983
0.127633
0.127593
0.127782
0.127901
0.127881
0.127858
0.127861
0.127915
0.127834
0.127942
0.127872
0.127949
0.127822
0.127989
0.127835
0.127969
0.127832
0.128004
0.127831
0.127963
0.127787
0.127943
0.127833
0.127916
0.127835
0.127904
0.127879
0.127905
0.127861
0.1279
0.127873
0.127959
0.127881
0.127929
0.127897
0.127943
0.127928
0.127953
0.127923
0.127955
0.127877
0.127971
0.127921
0.127964
0.127899
0.127991
0.127891
0.127932
0.127861
0.127914
0.127841
0.127954
0.12795
0.127844
0.127664
0.127712
0.127952
0.127899
0.1278
0.127776
0.127821
0.128043
0.128524
0.126773
0.127456
0.127973
0.129293
0.12874
0.129595
0.127935
0.125269
0.127945
0.129883
0.124792
0.128524
0.129769
0.128756
0.127527
0.125741
0.128286
0.128776
0.127811
0.125278
0.129342
0.127644
0.123995
0.127092
0.128584
0.127852
0.12821
0.127583
0.126674
0.126275
0.127698
0.127771
0.127117
0.127087
0.127203
0.12723
0.12733
0.12694
0.126938
0.127157
0.127269
0.127155
0.127133
0.127241
0.127152
0.127108
0.127131
0.127143
0.127031
0.127259
0.127093
0.127198
0.127124
0.127169
0.127105
0.127176
0.127038
0.127218
0.12701
0.127169
0.126995
0.127235
0.127066
0.127211
0.127108
0.1271
0.127135
0.127112
0.127168
0.127122
0.127058
0.127145
0.12709
0.12725
0.1272
0.127168
0.127183
0.127144
0.12713
0.127143
0.127184
0.127114
0.127207
0.127245
0.127124
0.127234
0.127193
0.127208
0.127117
0.127338
0.127131
0.127038
0.127048
0.12722
0.127211
0.127099
0.127127
0.127159
0.127768
0.127719
0.126882
0.125817
0.127636
0.128438
0.12771
0.128753
0.127368
0.125388
0.127374
0.129106
0.12596
0.127784
0.129134
0.127896
0.127149
0.124829
0.127721
0.127869
0.12696
0.123115
0.128525
0.126486
0.124799
0.125734
0.128443
0.126645
0.127264
0.1267
0.125163
0.125821
0.126957
0.126709
0.126212
0.126208
0.126237
0.126267
0.126317
0.12613
0.126136
0.126223
0.126351
0.126275
0.126259
0.12623
0.12631
0.12622
0.12626
0.126183
0.126266
0.126194
0.126317
0.126235
0.12635
0.126186
0.126332
0.126264
0.126307
0.126144
0.126294
0.126207
0.126229
0.126237
0.126261
0.126236
0.126249
0.126203
0.126265
0.126197
0.12632
0.12618
0.126305
0.126243
0.12629
0.12629
0.12632
0.126296
0.126318
0.126267
0.126321
0.126238
0.12632
0.126295
0.126349
0.126267
0.126319
0.126286
0.126352
0.126281
0.126319
0.126362
0.126298
0.126121
0.12623
0.126314
0.126311
0.126348
0.12627
0.126272
0.126533
0.127111
0.125341
0.125952
0.126639
0.127554
0.127092
0.128269
0.126522
0.123839
0.126418
0.128328
0.123369
0.127018
0.128549
0.127304
0.125981
0.124356
0.127401
0.127385
0.126408
0.124091
0.127983
0.126137
0.122708
0.125564
0.127809
0.12624
0.12659
0.126301
0.125232
0.124826
0.126477
0.126277
0.125723
0.125618
0.125581
0.12578
0.125699
0.125567
0.125563
0.12561
0.125647
0.125809
0.125505
0.125571
0.12555
0.125714
0.125484
0.125673
0.125603
0.125626
0.12547
0.125744
0.12552
0.125735
0.125542
0.125754
0.125488
0.125511
0.125599
0.125522
0.125591
0.125553
0.125551
0.125551
0.125585
0.125644
0.125539
0.125649
0.125519
0.125669
0.125584
0.125689
0.125635
0.125607
0.125536
0.125736
0.125604
0.125721
0.125638
0.125688
0.125603
0.125786
0.125575
0.125581
0.125488
0.125634
0.12563
0.125605
0.125613
0.125718
0.125621
0.125644
0.125538
0.125859
0.125797
0.125832
0.12575
0.125658
0.126216
0.126532
0.12538
0.124367
0.126305
0.126769
0.126186
0.127587
0.125767
0.124168
0.12584
0.12772
0.124607
0.126243
0.128178
0.126517
0.125802
0.123357
0.126193
0.126666
0.125404
0.121777
0.127268
0.125157
0.123343
0.124366
0.126362
0.125242
0.126021
0.125243
0.123766
0.124451
0.125513
0.125239
0.124731
0.124941
0.124781
0.124761
0.124991
0.124609
0.124652
0.124658
0.124775
0.124843
0.124718
0.124728
0.124753
0.124661
0.124703
0.124726
0.124685
0.12465
0.124773
0.124618
0.124811
0.124614
0.124766
0.124629
0.124758
0.124574
0.124667
0.124642
0.124632
0.124721
0.124716
0.124667
0.124682
0.124673
0.124752
0.124641
0.124831
0.124635
0.124667
0.124632
0.124722
0.124804
0.124756
0.124838
0.124763
0.12472
0.124743
0.12464
0.124828
0.12474
0.124861
0.124697
0.124845
0.124781
0.124798
0.124764
0.124831
0.124854
0.124658
0.124897
0.124703
0.124823
0.125016
0.124692
0.124736
0.124872
0.12513
0.125578
0.124041
0.124433
0.125166
0.126373
0.125602
0.126578
0.124985
0.122392
0.125179
0.126647
0.122032
0.125691
0.127094
0.125843
0.124494
0.122831
0.125612
0.126189
0.124474
0.122519
0.126466
0.124532
0.12131
0.124075
0.125911
0.124765
0.125414
0.124586
0.12374
0.1233
0.12478
0.124695
0.12415
0.124261
0.124067
0.12411
0.124257
0.124073
0.123977
0.1242
0.123997
0.124195
0.123987
0.124139
0.123953
0.124012
0.123904
0.124148
0.12394
0.123947
0.12409
0.124015
0.123953
0.123965
0.123921
0.124009
0.12409
0.124101
0.123976
0.124187
0.123919
0.124094
0.124012
0.124068
0.124023
0.124
0.123949
0.123973
0.124106
0.123976
0.124017
0.123994
0.123974
0.124131
0.124003
0.124158
0.123947
0.124078
0.124017
0.124021
0.124018
0.12411
0.124187
0.123993
0.124231
0.124027
0.124006
0.124023
0.124252
0.124102
0.12407
0.124185
0.123951
0.124197
0.124347
0.124058
0.124099
0.124345
0.124583
0.124834
0.12376
0.12286
0.124699
0.125725
0.124355
0.12579
0.12446
0.122534
0.124747
0.12588
0.123022
0.125229
0.126684
0.124961
0.124129
0.121982
0.125095
0.125371
0.124062
0.120667
0.125443
0.123693
0.121977
0.122949
0.12534
0.123872
0.12444
0.123705
0.122383
0.122882
0.124032
0.123859
0.123477
0.123171
0.123256
0.123499
0.123358
0.123257
0.123279
0.123302
0.123501
0.12334
0.123188
0.123287
0.123224
0.123279
0.123261
0.123292
0.123309
0.123261
0.123278
0.123256
0.123319
0.123234
0.123301
0.12318
0.123231
0.12329
0.12331
0.123142
0.123262
0.12319
0.12335
0.123239
0.123413
0.123277
0.12327
0.123221
0.123285
0.123249
0.123343
0.123322
0.123274
0.123271
0.123217
0.123189
0.123325
0.123286
0.12328
0.123306
0.123218
0.123371
0.123328
0.123153
0.123245
0.123204
0.123273
0.123219
0.123284
0.123365
0.123263
0.123183
0.123259
0.123425
0.12341
0.123428
0.123376
0.123459
0.123836
0.124209
0.122409
0.123015
0.123756
0.12449
0.123958
0.124952
0.123685
0.121022
0.12387
0.125438
0.120642
0.124057
0.126055
0.124431
0.123078
0.121601
0.12418
0.124803
0.12363
0.121101
0.124476
0.123491
0.119975
0.122899
0.124076
0.123581
0.12377
0.12323
0.121994
0.121981
0.123358
0.123337
0.122506
0.122464
0.122428
0.122935
0.122729
0.122478
0.122453
0.122532
0.122858
0.122553
0.122444
0.122508
0.122605
0.122412
0.12263
0.122484
0.122396
0.12274
0.122461
0.122496
0.122697
0.122466
0.122692
0.122543
0.122512
0.122587
0.122406
0.122372
0.122398
0.12256
0.122634
0.122502
0.122529
0.122491
0.122676
0.122422
0.122623
0.122444
0.122601
0.122669
0.122442
0.122614
0.122397
0.122516
0.122704
0.122428
0.122397
0.122479
0.122458
0.122536
0.122518
0.122468
0.122445
0.122542
0.122701
0.122524
0.122532
0.122734
0.122447
0.122479
0.122628
0.122543
0.122768
0.122538
0.12263
0.122645
0.123442
0.123321
0.122333
0.121558
0.123119
0.123759
0.123275
0.124425
0.122622
0.121061
0.123121
0.124656
0.121396
0.123189
0.125042
0.123591
0.122689
0.120629
0.123594
0.124108
0.122217
0.118871
0.123842
0.122434
0.120479
0.121203
0.123223
0.122301
0.123347
0.122213
0.120815
0.121358
0.122719
0.122202
0.121804
0.121816
0.121841
0.121768
0.121926
0.12163
0.121591
0.121881
0.121645
0.121675
0.121682
0.1217
0.121585
0.121803
0.121672
0.121726
0.121816
0.121682
0.121819
0.121623
0.121772
0.121862
0.121719
0.121773
0.121831
0.121568
0.121688
0.121776
0.121716
0.121759
0.121859
0.121747
0.121636
0.121679
0.121685
0.121713
0.121943
0.12171
0.121704
0.121664
0.121794
0.121669
0.121815
0.121844
0.121735
0.121687
0.12157
0.121897
0.121659
0.121579
0.121626
0.121775
0.121882
0.121836
0.121751
0.121709
0.121797
0.121729
0.121707
0.121869
0.121626
0.121997
0.122084
0.121962
0.121758
0.121837
0.12227
0.12294
0.121138
0.12135
0.122312
0.12325
0.122209
0.123794
0.122125
0.119377
0.122515
0.123415
0.118979
0.122672
0.12378
0.122616
0.121516
0.120101
0.123064
0.123433
0.121812
0.11966
0.123206
0.121734
0.118608
0.120956
0.122599
0.121848
0.122485
0.121569
0.12093
0.120274
0.121989
0.121723
0.121482
0.120888
0.121414
0.121186
0.121294
0.120922
0.120878
0.121298
0.121043
0.121059
0.121146
0.120962
0.120999
0.121275
0.121153
0.121075
0.121266
0.121153
0.121138
0.121134
0.12102
0.121443
0.121039
0.121123
0.121111
0.121106
0.121293
0.121076
0.121285
0.121079
0.121162
0.12101
0.121164
0.12115
0.121043
0.121289
0.121283
0.121316
0.121036
0.121018
0.121314
0.121087
0.121331
0.121032
0.121044
0.121112
0.12121
0.121461
0.121115
0.121066
0.121136
0.121246
0.121118
0.121307
0.121191
0.121211
0.121042
0.121194
0.121334
0.121014
0.121051
0.121538
0.121275
0.121542
0.121058
0.121308
0.121754
0.122295
0.120804
0.119875
0.122001
0.122319
0.121427
0.122706
0.121643
0.119471
0.122013
0.122723
0.120129
0.121947
0.123477
0.121958
0.121072
0.119463
0.122165
0.122486
0.121284
0.11763
0.122112
0.121104
0.119085
0.12036
0.122292
0.121451
0.121438
0.121191
0.119409
0.120116
0.121271
0.121287
0.120306
0.120275
0.120351
0.120676
0.120601
0.120201
0.120225
0.120232
0.120655
0.120543
0.120456
0.12044
0.120519
0.120332
0.120597
0.12037
0.120353
0.12064
0.120321
0.120627
0.120441
0.120466
0.12054
0.120363
0.120376
0.12055
0.120324
0.120271
0.120293
0.120343
0.120284
0.120511
0.120396
0.120571
0.12052
0.120305
0.120582
0.120304
0.120412
0.12041
0.120367
0.120635
0.120464
0.120413
0.120482
0.120507
0.120366
0.120451
0.120557
0.120289
0.120565
0.120296
0.120333
0.120486
0.1206
0.120453
0.120394
0.120777
0.12038
0.120395
0.12056
0.120509
0.120636
0.120516
0.120623
0.120443
0.1212
0.121229
0.119656
0.119997
0.121145
0.121876
0.121141
0.122255
0.120603
0.118193
0.121246
0.122388
0.117713
0.121565
0.122915
0.121767
0.119959
0.1189
0.121496
0.122148
0.120051
0.118362
0.1215
0.120531
0.117647
0.119528
0.121749
0.120629
0.120742
0.120424
0.119313
0.119102
0.120761
0.120414
0.119844
0.11999
0.119759
0.119992
0.120239
0.119889
0.119743
0.119777
0.119814
0.120149
0.119817
0.120077
0.119718
0.119798
0.119887
0.119955
0.119964
0.119897
0.119719
0.120008
0.119803
0.119691
0.119763
0.119831
0.119672
0.119735
0.119757
0.119892
0.119717
0.119671
0.119752
0.120123
0.119712
0.120058
0.11979
0.119714
0.119922
0.119742
0.119845
0.119907
0.119786
0.119896
0.120029
0.120112
0.1197
0.119907
0.119762
0.119657
0.120062
0.119819
0.119766
0.1197
0.1197
0.119861
0.119862
0.119818
0.120094
0.119861
0.119865
0.119976
0.11985
0.119966
0.120285
0.119614
0.120209
0.119949
0.120516
0.120324
0.119263
0.118843
0.120576
0.121334
0.119922
0.121714
0.119976
0.118347
0.12063
0.121347
0.118539
0.120498
0.122292
0.120744
0.119718
0.118162
0.121118
0.121558
0.119814
0.116783
0.121087
0.119751
0.118079
0.118688
0.120724
0.119788
0.120586
0.119591
0.118495
0.118804
0.120203
0.119842
0.119663
0.119104
0.119574
0.119519
0.119813
0.119275
0.119226
0.119469
0.119458
0.119336
0.119307
0.119293
0.119293
0.119552
0.119379
0.119297
0.119624
0.119178
0.119369
0.119228
0.119294
0.119062
0.119201
0.119457
0.119221
0.119148
0.119441
0.11923
0.119426
0.119381
0.119499
0.119308
0.119405
0.119458
0.119528
0.119468
0.119449
0.119464
0.119224
0.119249
0.119472
0.119348
0.119716
0.119326
0.119295
0.119203
0.11929
0.119152
0.119379
0.119372
0.119408
0.119496
0.119394
0.119578
0.119336
0.119511
0.119283
0.119497
0.119544
0.119198
0.119344
0.119731
0.11948
0.119141
0.119251
0.119727
0.120057
0.11988
0.118426
0.118731
0.120132
0.120535
0.119631
0.120776
0.119838
0.11694
0.120311
0.120863
0.116903
0.119965
0.121765
0.120336
0.118795
0.117768
0.120555
0.12062
0.119599
0.117281
0.120306
0.119321
0.11654
0.118791
0.120295
0.119397
0.120171
0.11939
0.118236
0.118094
0.119732
0.11966
0.118715
0.118651
0.118747
0.11923
0.119168
0.11874
0.118771
0.118751
0.119203
0.118853
0.118811
0.118942
0.119117
0.118783
0.119116
0.119042
0.118861
0.118654
0.119069
0.118796
0.118961
0.118718
0.118867
0.11906
0.119068
0.118958
0.118654
0.118691
0.118723
0.119048
0.118742
0.118983
0.118909
0.118712
0.119176
0.118785
0.119054
0.118716
0.118845
0.118776
0.118784
0.118956
0.118942
0.119038
0.11908
0.11884
0.118723
0.11884
0.118696
0.118926
0.119112
0.118756
0.119078
0.118945
0.118997
0.118878
0.118824
0.119139
0.118791
0.118771
0.118993
0.118812
0.118918
0.11873
0.118643
0.118696
0.119841
0.119445
0.118601
0.117561
0.119746
0.120181
0.119219
0.120615
0.118803
0.117303
0.11969
0.120604
0.117488
0.119941
0.121294
0.120002
0.118453
0.117136
0.119923
0.120451
0.118669
0.116043
0.119831
0.118777
0.117234
0.117468
0.119971
0.119008
0.119237
0.119003
0.117344
0.117821
0.119384
0.118841
0.118309
0.118438
0.118277
0.118543
0.118568
0.118453
0.118134
0.11835
0.118364
0.118642
0.118254
0.118673
0.118261
0.118245
0.118393
0.118738
0.118227
0.118472
0.118364
0.118568
0.118321
0.118579
0.118438
0.118375
0.118282
0.118414
0.118182
0.118549
0.118193
0.118246
0.118286
0.118683
0.118282
0.118217
0.118355
0.118468
0.118438
0.11836
0.118496
0.118306
0.118336
0.118288
0.118303
0.118652
0.118346
0.118593
0.118371
0.118599
0.118182
0.118513
0.118316
0.118282
0.118291
0.118231
0.118341
0.118324
0.118548
0.118383
0.118334
0.118484
0.118284
0.118497
0.118392
0.118407
0.118163
0.118415
0.119033
0.119294
0.11739
0.11795
0.119163
0.119869
0.118463
0.120071
0.118554
0.116037
0.11933
0.119628
0.115619
0.119086
0.120798
0.119323
0.117695
0.116688
0.11966
0.120182
0.118291
0.116503
0.11946
0.118409
0.11594
0.117488
0.119037
0.118798
0.118935
0.118408
0.117531
0.117149
0.118926
0.118447
0.118284
0.117673
0.118176
0.118172
0.118053
0.117882
0.117811
0.118232
0.1181
0.117977
0.117992
0.117894
0.117872
0.117794
0.117849
0.117976
0.117876
0.118185
0.118002
0.117852
0.117938
0.117822
0.117954
0.117881
0.117871
0.11787
0.118127
0.118005
0.118088
0.117946
0.118115
0.11795
0.117993
0.118116
0.117808
0.118252
0.117976
0.118153
0.117913
0.117895
0.118131
0.117934
0.117856
0.117925
0.117881
0.117904
0.118136
0.117898
0.117909
0.118028
0.117956
0.118147
0.117982
0.117831
0.117962
0.118025
0.117896
0.117973
0.118121
0.117803
0.117908
0.11825
0.118133
0.117885
0.11779
0.118263
0.118736
0.118677
0.117301
0.116808
0.118784
0.119086
0.117977
0.119108
0.118266
0.11633
0.118995
0.119164
0.116706
0.118489
0.12042
0.118927
0.117553
0.116346
0.119426
0.119015
0.118222
0.11536
0.118784
0.117854
0.116291
0.117171
0.118739
0.118269
0.118643
0.118106
0.116496
0.117015
0.11852
0.118301
0.117429
0.117329
0.117385
0.117955
0.117752
0.117349
0.117649
0.117509
0.117938
0.11776
0.117506
0.11758
0.117733
0.117418
0.117305
0.117314
0.117512
0.117467
0.117673
0.117588
0.117694
0.117498
0.117605
0.117406
0.117722
0.117599
0.1174
0.117443
0.117438
0.11775
0.117385
0.117403
0.117428
0.117701
0.11743
0.117519
0.117542
0.117445
0.117589
0.117645
0.117541
0.117697
0.117578
0.117426
0.117615
0.117546
0.117487
0.117568
0.11771
0.117416
0.117778
0.117521
0.117849
0.117656
0.117747
0.117498
0.117532
0.117771
0.117422
0.117491
0.117639
0.117529
0.117917
0.117484
0.117584
0.117524
0.118566
0.118406
0.116852
0.11677
0.11838
0.118806
0.117856
0.119029
0.11753
0.11537
0.118501
0.119147
0.114853
0.118698
0.12003
0.118768
0.116785
0.11606
0.118994
0.118784
0.117644
0.115792
0.118339
0.117349
0.115404
0.116611
0.118513
0.11791
0.117891
0.117864
0.116515
0.116394
0.118202
0.117658
0.117139
0.117232
0.117044
0.117359
0.117544
0.117129
0.117065
0.116902
0.117279
0.117557
0.117085
0.117411
0.117088
0.117196
0.117057
0.116955
0.117314
0.117097
0.117164
0.117374
0.117194
0.117342
0.117115
0.117091
0.117068
0.117199
0.117113
0.117117
0.117146
0.117068
0.117047
0.117073
0.117092
0.117128
0.11719
0.117016
0.117139
0.117092
0.117341
0.117149
0.117189
0.117108
0.117382
0.117117
0.117101
0.117384
0.117157
0.117421
0.117098
0.117098
0.11704
0.117203
0.117154
0.11733
0.117163
0.117097
0.117344
0.117188
0.117096
0.117301
0.117108
0.11729
0.117278
0.117233
0.11705
0.117171
0.117919
0.118134
0.116438
0.116104
0.118033
0.118569
0.116991
0.11865
0.117173
0.11557
0.118092
0.118268
0.11571
0.117811
0.119622
0.118114
0.116724
0.115565
0.118708
0.118684
0.117265
0.114753
0.117837
0.116795
0.115648
0.116051
0.117687
0.117707
0.117773
0.117259
0.115966
0.11615
0.117817
0.117238
0.11715
0.116529
0.117035
0.117081
0.116936
0.11678
0.116759
0.116531
0.116882
0.11695
0.116866
0.116696
0.116771
0.116682
0.116907
0.116884
0.116828
0.117024
0.11686
0.116798
0.116854
0.116746
0.116814
0.116972
0.116731
0.116702
0.116968
0.11661
0.116937
0.116742
0.116986
0.116776
0.116986
0.116824
0.117036
0.116835
0.116985
0.117017
0.116821
0.116837
0.117027
0.116884
0.11676
0.116833
0.116831
0.116754
0.117003
0.116791
0.116684
0.116843
0.116829
0.117009
0.116585
0.1168
0.116911
0.116901
0.116759
0.116937
0.116937
0.116713
0.116751
0.117154
0.116974
0.116814
0.116732
0.1172
0.117583
0.117546
0.115837
0.116114
0.117705
0.117861
0.116825
0.11787
0.117138
0.114544
0.117823
0.117912
0.114371
0.117332
0.119193
0.117836
0.116084
0.115368
0.118741
0.117519
0.11714
0.114954
0.117451
0.116802
0.114466
0.116119
0.11739
0.117274
0.117508
0.11705
0.115703
0.115681
0.117438
0.11718
0.116337
0.11626
0.116319
0.116912
0.116608
0.116283
0.11658
0.116415
0.116663
0.116542
0.116472
0.116404
0.116674
0.116326
0.116413
0.116733
0.116564
0.1164
0.116663
0.116496
0.116726
0.116448
0.116717
0.11643
0.116666
0.116529
0.116347
0.116346
0.116356
0.116629
0.116437
0.116611
0.116398
0.116633
0.11643
0.116577
0.116558
0.116406
0.116495
0.116647
0.116416
0.11676
0.116482
0.116466
0.116532
0.116461
0.11642
0.116397
0.116498
0.11647
0.116681
0.116479
0.116244
0.116386
0.1167
0.116462
0.116458
0.116787
0.116274
0.116211
0.11654
0.116351
0.116877
0.116437
0.116622
0.116473
0.11741
0.116885
0.115991
0.115322
0.117503
0.11756
0.116643
0.117823
0.116271
0.115016
0.117348
0.117878
0.114991
0.11756
0.118948
0.117605
0.11596
0.115156
0.118244
0.11731
0.116753
0.114171
0.116745
0.116492
0.115004
0.115381
0.117239
0.117041
0.116812
0.11684
0.11512
0.115471
0.1172
0.116543
0.116145
0.116181
0.116074
0.116365
0.116485
0.116036
0.116122
0.116281
0.116195
0.11637
0.116133
0.116367
0.116077
0.116238
0.116139
0.116134
0.116343
0.116157
0.116141
0.116428
0.116168
0.116393
0.116137
0.116127
0.116064
0.116297
0.116046
0.116344
0.116155
0.116099
0.11622
0.116096
0.1161
0.116114
0.116125
0.116415
0.11611
0.116121
0.116346
0.116133
0.116201
0.11617
0.11636
0.116209
0.116096
0.116347
0.116197
0.116217
0.115979
0.116117
0.115964
0.115928
0.116102
0.116011
0.116196
0.116126
0.116322
0.11623
0.116081
0.115889
0.116009
0.116134
0.116305
0.116256
0.11604
0.116313
0.116739
0.11664
0.115111
0.11564
0.117105
0.117529
0.115985
0.117614
0.11615
0.113985
0.117148
0.117083
0.113467
0.116814
0.118784
0.117095
0.115421
0.11465
0.118086
0.117302
0.116274
0.11465
0.11628
0.115874
0.114205
0.115461
0.116595
0.116882
0.116719
0.116334
0.115237
0.114979
0.116839
0.116224
0.116151
0.115526
0.116059
0.116144
0.115957
0.115912
0.115823
0.115758
0.115958
0.116081
0.115984
0.115764
0.115854
0.115746
0.116026
0.115888
0.115921
0.116058
0.115932
0.115861
0.115908
0.115744
0.115943
0.115996
0.115869
0.115844
0.116029
0.115778
0.116103
0.115858
0.11616
0.115789
0.116042
0.115776
0.116012
0.115931
0.115888
0.116054
0.115809
0.115901
0.116031
0.115911
0.115818
0.116012
0.115805
0.115786
0.11608
0.115797
0.115672
0.115817
0.115816
0.115611
0.11598
0.115851
0.115823
0.11594
0.115798
0.115977
0.115985
0.115772
0.115621
0.116014
0.116038
0.115943
0.115725
0.116209
0.116288
0.116443
0.114988
0.114552
0.116883
0.116851
0.115736
0.116845
0.115966
0.114255
0.116729
0.116923
0.114261
0.116465
0.118174
0.116881
0.115205
0.114457
0.118007
0.116278
0.116107
0.113826
0.116095
0.115351
0.11422
0.115139
0.116415
0.116393
0.11652
0.116153
0.114411
0.114834
0.116526
0.116181
0.115389
0.11526
0.115482
0.115979
0.115693
0.115409
0.115646
0.115497
0.115639
0.11575
0.115605
0.115594
0.115741
0.115465
0.115494
0.115799
0.11561
0.115502
0.115749
0.115699
0.115698
0.115576
0.115777
0.115566
0.115754
0.115687
0.115518
0.115496
0.115544
0.115726
0.115593
0.115696
0.115527
0.11564
0.115473
0.115423
0.115484
0.115439
0.115506
0.115705
0.11557
0.115712
0.115561
0.11549
0.115596
0.115534
0.115554
0.115455
0.115545
0.115419
0.115747
0.11556
0.115455
0.115724
0.11567
0.115572