/*--------------------------------*- C++ -*----------------------------------*\
| =========                 |                                                 |
| \\      /  F ield         | OpenFOAM: The Open Source CFD Toolbox           |
|  \\    /   O peration     | Version:  2312                                  |
|   \\  /    A nd           | Website:  www.openfoam.com                      |
|    \\/     M anipulation  |                                                 |
\*---------------------------------------------------------------------------*/
FoamFile
{
    version     2.0;
    format      ascii;
    arch        "LSB;label=32;scalar=64";
    class       volScalarField;
    location    "1";
    object      alpha.air;
}
// * * * * * * * * * * * * * * * * * * * * * * * * * * * * * * * * * * * * * //

dimensions      [0 0 0 0 0 0 0];

internalField   nonuniform List<scalar> 
50000
(
0.208053
0.191933
0.189181
0.207007
0.205234
0.187595
0.20272
0.205779
0.202736
0.204192
0.188672
0.188688
0.201908
0.203248
0.20314
0.203671
0.192758
0.201523
0.200832
0.207109
0.198158
0.198555
0.202726
0.202072
0.208884
0.203414
0.206951
0.210629
0.210339
0.210592
0.210722
0.211316
0.210823
0.211319
0.211384
0.211356
0.210663
0.211489
0.211216
0.211595
0.211524
0.211548
0.21153
0.211589
0.211694
0.211568
0.211686
0.211659
0.211572
0.211637
0.211661
0.211615
0.211668
0.211561
0.211675
0.211543
0.211594
0.211596
0.211546
0.211407
0.211602
0.211399
0.211581
0.210553
0.211625
0.210141
0.211383
0.210524
0.210371
0.211
0.210281
0.210003
0.210609
0.208926
0.204359
0.209847
0.202294
0.20254
0.20068
0.19826
0.20754
0.20059
0.203099
0.192591
0.202692
0.202867
0.203547
0.20192
0.18986
0.186933
0.201717
0.202535
0.205595
0.202716
0.188716
0.204935
0.210296
0.191225
0.191704
0.201164
0.157618
0.157181
0.157174
0.16116
0.15246
0.162901
0.157115
0.155315
0.157326
0.162204
0.160504
0.162096
0.159436
0.155602
0.158073
0.164018
0.164805
0.170128
0.166325
0.171136
0.170292
0.169935
0.166539
0.164034
0.171427
0.17167
0.172161
0.172577
0.172821
0.172954
0.172567
0.172872
0.173016
0.173094
0.172955
0.17309
0.172933
0.173144
0.172921
0.173175
0.173208
0.173186
0.173214
0.173174
0.173253
0.1732
0.173255
0.173226
0.1732
0.173218
0.17325
0.173205
0.173236
0.173173
0.173227
0.173215
0.173223
0.173216
0.17317
0.173136
0.173185
0.173055
0.17319
0.172916
0.173191
0.172261
0.173159
0.17297
0.172338
0.172727
0.172893
0.172822
0.172572
0.172513
0.171834
0.171926
0.164914
0.166071
0.170375
0.170247
0.171496
0.166846
0.170222
0.164949
0.164073
0.158248
0.155452
0.158619
0.163594
0.159617
0.16336
0.156772
0.153453
0.158044
0.16291
0.148263
0.160864
0.161775
0.161216
0.16364
0.127641
0.132345
0.129643
0.135232
0.126236
0.140019
0.128792
0.127711
0.127546
0.135845
0.133222
0.13534
0.133171
0.126174
0.12765
0.131971
0.138319
0.133846
0.134941
0.134638
0.136766
0.134393
0.131369
0.129123
0.133807
0.134983
0.134357
0.134399
0.135109
0.134474
0.134424
0.134474
0.134468
0.13506
0.134919
0.135078
0.134868
0.135107
0.134745
0.134767
0.135065
0.135061
0.135063
0.134991
0.135075
0.134985
0.13508
0.134858
0.134857
0.134853
0.135077
0.135049
0.13507
0.13492
0.134955
0.135075
0.135089
0.135078
0.134865
0.134856
0.135063
0.134965
0.135096
0.134886
0.135144
0.134569
0.135154
0.13437
0.13436
0.134716
0.134413
0.134398
0.135205
0.134283
0.134521
0.135018
0.129811
0.130674
0.134026
0.136706
0.134675
0.135252
0.134454
0.138175
0.132064
0.130481
0.126642
0.133255
0.13442
0.129636
0.136299
0.128158
0.1274
0.129562
0.138058
0.126749
0.132786
0.132585
0.130709
0.131113
0.126615
0.132039
0.129364
0.133712
0.127201
0.138225
0.128786
0.125887
0.127711
0.135807
0.126904
0.13287
0.132118
0.126645
0.126409
0.132512
0.133937
0.133807
0.134913
0.134617
0.13537
0.134163
0.131144
0.129161
0.133983
0.134917
0.134495
0.135057
0.13512
0.135007
0.134813
0.134939
0.13501
0.135011
0.13503
0.135017
0.135025
0.135044
0.134872
0.13501
0.135043
0.135026
0.135043
0.134976
0.13505
0.135011
0.135054
0.135022
0.134993
0.135019
0.135051
0.135024
0.13504
0.13499
0.13502
0.13506
0.135048
0.135067
0.134973
0.135007
0.135008
0.134942
0.135023
0.135054
0.13508
0.134752
0.135106
0.134971
0.134656
0.134908
0.134935
0.135004
0.135163
0.134315
0.134456
0.134993
0.12983
0.130656
0.134018
0.135324
0.134652
0.135222
0.13425
0.133557
0.132501
0.126615
0.125001
0.131432
0.132222
0.128277
0.136273
0.127358
0.128154
0.129626
0.137641
0.128348
0.131679
0.131736
0.130572
0.131063
0.126129
0.12944
0.126578
0.129424
0.12214
0.135105
0.12719
0.127708
0.125561
0.132371
0.126088
0.127577
0.128027
0.123427
0.126645
0.127069
0.128146
0.130061
0.127797
0.127939
0.130121
0.127065
0.125298
0.124844
0.126414
0.129517
0.129832
0.129801
0.129894
0.129718
0.129875
0.129648
0.129887
0.129438
0.129685
0.129343
0.129685
0.129575
0.129593
0.129586
0.129653
0.129529
0.129606
0.129562
0.129624
0.129543
0.129611
0.129616
0.129602
0.129616
0.129571
0.1296
0.12957
0.129581
0.129582
0.129677
0.129524
0.129718
0.129467
0.12976
0.12944
0.129766
0.129487
0.129848
0.129624
0.129873
0.12973
0.129754
0.129248
0.129787
0.129627
0.129874
0.129787
0.127596
0.127587
0.129579
0.125452
0.125986
0.126912
0.130049
0.12806
0.127931
0.130386
0.127877
0.127115
0.125253
0.12661
0.126458
0.128863
0.128315
0.132942
0.128155
0.123158
0.128156
0.13561
0.121803
0.12835
0.128427
0.128371
0.127807
0.126065
0.130214
0.12644
0.129218
0.127161
0.135098
0.12771
0.122536
0.127709
0.132195
0.126757
0.127462
0.127797
0.126644
0.123986
0.128651
0.129248
0.129976
0.127989
0.12908
0.130101
0.128457
0.126374
0.125282
0.128803
0.129904
0.129109
0.129906
0.129641
0.129906
0.129494
0.129906
0.129657
0.129905
0.129561
0.129902
0.129417
0.129881
0.129469
0.129616
0.129613
0.12961
0.129549
0.129577
0.129593
0.129567
0.129584
0.129597
0.129578
0.129596
0.129569
0.129577
0.129589
0.129531
0.129661
0.129536
0.129713
0.129531
0.129768
0.129475
0.129826
0.129428
0.129914
0.129323
0.129914
0.12916
0.129914
0.129564
0.129875
0.129575
0.12991
0.129573
0.129909
0.129405
0.12941
0.129546
0.125985
0.126187
0.128583
0.130028
0.129048
0.128117
0.130091
0.12909
0.12858
0.126596
0.122463
0.127731
0.128913
0.127185
0.133049
0.125593
0.128152
0.127484
0.136254
0.128346
0.128047
0.12883
0.128541
0.128364
0.126078
0.127797
0.12558
0.128876
0.121212
0.135106
0.126554
0.127707
0.124695
0.131427
0.126102
0.127505
0.126646
0.122185
0.126644
0.126456
0.128779
0.126416
0.126045
0.125842
0.127705
0.125289
0.124807
0.124039
0.124807
0.127533
0.127134
0.127583
0.127216
0.127559
0.127071
0.127458
0.127233
0.127432
0.127014
0.12723
0.126846
0.127191
0.126868
0.127335
0.127092
0.127147
0.126927
0.12719
0.127139
0.127191
0.127118
0.127185
0.127171
0.127176
0.127162
0.127133
0.127162
0.1271
0.127172
0.127085
0.127168
0.127069
0.127183
0.126976
0.127089
0.126892
0.127058
0.126874
0.127368
0.126823
0.127466
0.126929
0.127165
0.126995
0.127405
0.12726
0.127439
0.127075
0.127453
0.125817
0.124878
0.12565
0.125622
0.127778
0.126004
0.126216
0.126439
0.12861
0.126597
0.123926
0.126592
0.1262
0.128726
0.128269
0.132146
0.128154
0.121654
0.128154
0.13621
0.120868
0.128349
0.128728
0.12836
0.126998
0.125862
0.12647
0.125683
0.128671
0.127048
0.134999
0.127709
0.12181
0.127708
0.131235
0.126756
0.128358
0.126269
0.126643
0.123487
0.127753
0.128751
0.127681
0.125839
0.127207
0.127685
0.12701
0.12472
0.124788
0.126777
0.127428
0.12764
0.12734
0.12764
0.127291
0.127635
0.127168
0.127636
0.127174
0.127635
0.127118
0.127494
0.127021
0.127395
0.127092
0.127343
0.127046
0.127282
0.127091
0.127233
0.12709
0.127193
0.12714
0.127163
0.127145
0.127143
0.127143
0.127106
0.127173
0.127111
0.127198
0.127079
0.127227
0.127084
0.127263
0.127042
0.1273
0.126993
0.127331
0.127055
0.127526
0.127255
0.127542
0.126992
0.12747
0.127318
0.12747
0.127324
0.127467
0.12728
0.127447
0.125566
0.124921
0.127239
0.127765
0.127232
0.125934
0.127768
0.128603
0.127679
0.126587
0.121922
0.126609
0.128758
0.126672
0.132206
0.125247
0.128151
0.127003
0.136253
0.128345
0.127828
0.128829
0.127602
0.128359
0.125297
0.125458
0.12539
0.128278
0.121047
0.134631
0.126469
0.127706
0.124468
0.131141
0.12557
0.128321
0.126645
0.121977
0.126644
0.126441
0.128111
0.125695
0.125448
0.125695
0.125695
0.12648
0.124788
0.124011
0.124788
0.126497
0.126258
0.125978
0.12624
0.125926
0.126128
0.125785
0.126189
0.12581
0.126154
0.12579
0.126045
0.125745
0.125982
0.125739
0.125942
0.125771
0.125952
0.125797
0.125938
0.125771
0.125934
0.125802
0.12594
0.125816
0.125827
0.125783
0.125726
0.125808
0.125644
0.125792
0.125613
0.1258
0.125608
0.125879
0.125575
0.125899
0.125557
0.125921
0.12556
0.125896
0.125612
0.126206
0.125676
0.126099
0.125955
0.126201
0.125892
0.126201
0.126268
0.125566
0.124801
0.125566
0.126038
0.126611
0.125648
0.12605
0.125971
0.128013
0.126589
0.123724
0.126584
0.126151
0.128628
0.12823
0.131869
0.128153
0.121242
0.128154
0.135344
0.120777
0.128348
0.128125
0.128354
0.126769
0.1253
0.12536
0.125353
0.128102
0.127022
0.134554
0.127709
0.121899
0.127708
0.13103
0.126756
0.128358
0.12632
0.126643
0.123445
0.127391
0.128082
0.126677
0.125745
0.125628
0.126487
0.126413
0.124114
0.124768
0.12569
0.126367
0.125923
0.126367
0.125829
0.126367
0.125783
0.126323
0.125845
0.126294
0.125865
0.126275
0.125843
0.126117
0.12578
0.126048
0.125746
0.126028
0.125757
0.126019
0.125754
0.126001
0.125775
0.125965
0.125789
0.125936
0.125856
0.125889
0.125913
0.125823
0.125968
0.12574
0.125979
0.125725
0.126033
0.125732
0.126081
0.125699
0.126123
0.125698
0.126171
0.125539
0.126272
0.125992
0.126271
0.125884
0.126278
0.125837
0.126278
0.125641
0.126311
0.126092
0.125468
0.124778
0.126608
0.12659
0.126212
0.125608
0.127003
0.128016
0.127398
0.126585
0.121878
0.126586
0.128613
0.126794
0.131902
0.125298
0.12815
0.126916
0.133462
0.128345
0.127726
0.128354
0.1275
0.128359
0.125043
0.125406
0.125312
0.1277
0.120983
0.134281
0.126518
0.127706
0.12452
0.130612
0.125756
0.128194
0.126645
0.122041
0.126644
0.126482
0.127562
0.125276
0.125285
0.125025
0.125285
0.12608
0.124768
0.123855
0.124768
0.125833
0.125171
0.125477
0.125171
0.125477
0.125152
0.125476
0.125169
0.125477
0.125112
0.125476
0.125177
0.125476
0.125079
0.125467
0.125035
0.125464
0.125035
0.125451
0.125012
0.125435
0.124994
0.125399
0.124964
0.125391
0.124939
0.125388
0.124917
0.125382
0.124901
0.125353
0.124904
0.125296
0.124939
0.125273
0.124964
0.125235
0.125014
0.125237
0.125089
0.125156
0.125244
0.125268
0.125308
0.125199
0.125313
0.125247
0.12532
0.125172
0.125583
0.125469
0.124728
0.125469
0.126015
0.125885
0.125476
0.125841
0.125812
0.127528
0.126587
0.123709
0.126584
0.126105
0.12859
0.128197
0.131622
0.128153
0.121279
0.128153
0.131727
0.120796
0.128348
0.127949
0.128354
0.126591
0.125299
0.125381
0.125461
0.127635
0.127003
0.134226
0.127709
0.121744
0.127708
0.130602
0.126756
0.128205
0.126444
0.126643
0.123553
0.12715
0.127526
0.126208
0.124997
0.125309
0.125879
0.125989
0.12406
0.12475
0.125043
0.125794
0.125649
0.125103
0.125525
0.125109
0.125514
0.124993
0.125513
0.125012
0.125512
0.125018
0.125517
0.124941
0.125482
0.124916
0.125476
0.124924
0.125474
0.124935
0.12547
0.124914
0.125437
0.124903
0.12542
0.124884
0.125402
0.124892
0.125393
0.124897
0.125386
0.124907
0.125371
0.124972
0.125367
0.125061
0.125359
0.125152
0.125348
0.125245
0.12522
0.125209
0.125281
0.125388
0.125101
0.12539
0.125221
0.125409
0.12523
0.125445
0.125799
0.125304
0.125312
0.124803
0.126192
0.125991
0.125749
0.125607
0.126617
0.127537
0.127227
0.126585
0.121966
0.126586
0.128611
0.126515
0.131496
0.125486
0.12815
0.126916
0.132013
0.128345
0.127621
0.128354
0.127533
0.128359
0.124946
0.125462
0.125205
0.127321
0.121244
0.133996
0.126531
0.127706
0.124703
0.131316
0.125884
0.127534
0.126646
0.122156
0.126645
0.126538
0.127174
0.125081
0.124752
0.124933
0.124904
0.125646
0.12475
0.123953
0.12475
0.12537
0.124868
0.124652
0.12486
0.124632
0.124847
0.124624
0.12486
0.124647
0.124867
0.12465
0.124886
0.124649
0.124895
0.124648
0.124902
0.124668
0.124923
0.124671
0.124886
0.124636
0.124886
0.124649
0.124883
0.124706
0.124883
0.124791
0.124875
0.124863
0.124874
0.124913
0.124883
0.124927
0.124886
0.125003
0.12488
0.125045
0.124871
0.125096
0.124798
0.125101
0.124847
0.125101
0.124864
0.125101
0.124926
0.125101
0.125016
0.125138
0.124924
0.125158
0.124847
0.125312
0.125238
0.125501
0.12537
0.125587
0.125644
0.126652
0.126674
0.123785
0.126585
0.126104
0.128164
0.128164
0.131343
0.128153
0.121343
0.128154
0.132895
0.120914
0.128349
0.127572
0.128354
0.126565
0.125299
0.125288
0.125301
0.127274
0.12696
0.133961
0.127709
0.121896
0.127708
0.131246
0.126787
0.127403
0.126417
0.126644
0.123707
0.126997
0.127214
0.125802
0.124995
0.124699
0.125662
0.125624
0.124126
0.124698
0.124701
0.125386
0.124806
0.124913
0.124561
0.12489
0.124528
0.124846
0.124573
0.124862
0.124526
0.124899
0.12462
0.124891
0.124565
0.124883
0.124534
0.124889
0.124533
0.124897
0.124555
0.124926
0.124584
0.124933
0.124624
0.124907
0.124667
0.12488
0.124754
0.124871
0.124832
0.124877
0.124892
0.124884
0.124941
0.124887
0.125001
0.12487
0.12506
0.124871
0.125125
0.124765
0.125123
0.124844
0.125104
0.124862
0.125128
0.124958
0.125135
0.125016
0.125679
0.125174
0.125312
0.124956
0.126003
0.126016
0.12566
0.125778
0.126458
0.127103
0.127087
0.126585
0.122087
0.126586
0.128118
0.12647
0.131328
0.125617
0.128151
0.126896
0.133778
0.128345
0.127666
0.128455
0.127419
0.128359
0.124683
0.1253
0.125123
0.127258
0.121377
0.134564
0.1265
0.127707
0.124834
0.130418
0.12692
0.127655
0.126646
0.122289
0.126645
0.126565
0.127216
0.12509
0.124699
0.124804
0.124767
0.125477
0.124698
0.124011
0.124659
0.124479
0.12462
0.124501
0.12458
0.124492
0.124546
0.124487
0.124559
0.124492
0.124594
0.124501
0.124664
0.124513
0.12468
0.12451
0.124701
0.124511
0.124755
0.124507
0.124765
0.12453
0.124816
0.124582
0.124841
0.124607
0.12483
0.124644
0.124839
0.124751
0.124824
0.124806
0.124808
0.124889
0.124826
0.124897
0.124818
0.124999
0.124794
0.125025
0.124741
0.125074
0.124754
0.125083
0.124768
0.125092
0.124862
0.1251
0.124907
0.125127
0.125545
0.125345
0.125004
0.125345
0.125843
0.126115
0.125558
0.125757
0.125863
0.126374
0.126831
0.123903
0.126585
0.126137
0.128952
0.128164
0.131305
0.128154
0.121375
0.128154
0.133843
0.121333
0.128349
0.127969
0.128355
0.126563
0.125299
0.125153
0.125301
0.127313
0.12691
0.134539
0.127709
0.121937
0.127708
0.131078
0.127481
0.127659
0.126279
0.126645
0.123792
0.127205
0.127214
0.125807
0.124813
0.124604
0.125335
0.125492
0.12423
0.124698
0.124601
0.125125
0.124665
0.12458
0.124505
0.124559
0.124494
0.124534
0.124494
0.124562
0.124501
0.124599
0.12451
0.124644
0.124521
0.124671
0.124504
0.124692
0.124506
0.124753
0.124508
0.12478
0.124537
0.124816
0.124565
0.124822
0.124607
0.124805
0.124689
0.124824
0.124754
0.124802
0.124796
0.124809
0.124888
0.124843
0.124936
0.124797
0.124996
0.124782
0.125027
0.124734
0.125072
0.124766
0.12505
0.124768
0.12509
0.12488
0.12513
0.124913
0.125685
0.125086
0.125309
0.125024
0.1263
0.126127
0.125764
0.125885
0.126229
0.127013
0.127634
0.126586
0.122209
0.126587
0.129036
0.126384
0.131308
0.125743
0.128151
0.127082
0.133824
0.128346
0.127354
0.12841
0.127272
0.12836
0.124423
0.125431
0.124844
0.127817
0.121682
0.134075
0.126348
0.127706
0.124849
0.131137
0.127105
0.127091
0.126647
0.122403
0.126646
0.127143
0.126907
0.125095
0.124658
0.124753
0.125972
0.12502
0.12475
0.124121
0.12475
0.125289
0.124566
0.124463
0.124542
0.12445
0.124519
0.124445
0.124528
0.124452
0.12455
0.124462
0.124593
0.124485
0.124644
0.124499
0.124664
0.124511
0.124683
0.124507
0.124753
0.12453
0.124764
0.124582
0.124816
0.124607
0.124796
0.124655
0.124795
0.124751
0.124802
0.124806
0.124783
0.124832
0.12481
0.12492
0.12478
0.124959
0.124784
0.125015
0.124781
0.125016
0.124785
0.125039
0.124786
0.125044
0.124877
0.12511
0.12494
0.125127
0.125088
0.125165
0.1251
0.125309
0.126097
0.126321
0.125635
0.125906
0.125925
0.126585
0.127651
0.123888
0.126585
0.126019
0.128206
0.12821
0.130571
0.128155
0.121604
0.128155
0.133862
0.12142
0.128351
0.127989
0.128361
0.126441
0.125299
0.124911
0.125302
0.12784
0.126816
0.134026
0.12771
0.122219
0.127709
0.13042
0.127404
0.12838
0.126153
0.126645
0.123855
0.127201
0.126939
0.1254
0.124872
0.124651
0.125835
0.125482
0.124245
0.12475
0.124588
0.12548
0.124573
0.124537
0.124437
0.124514
0.124444
0.124472
0.124434
0.124534
0.12445
0.12457
0.124484
0.124588
0.124485
0.124644
0.124495
0.124659
0.12451
0.124682
0.124523
0.124764
0.124573
0.124765
0.124601
0.124811
0.124662
0.124807
0.124737
0.124793
0.124805
0.124796
0.124842
0.124751
0.124854
0.12481
0.124953
0.124772
0.124968
0.124776
0.125011
0.124755
0.125012
0.124789
0.125048
0.124847
0.125109
0.124929
0.125176
0.125038
0.125395
0.125115
0.125348
0.125168
0.126462
0.126166
0.1259
0.125948
0.126385
0.126823
0.127648
0.126588
0.122308
0.126594
0.129045
0.12657
0.131101
0.125632
0.128153
0.127015
0.133825
0.128347
0.127665
0.128411
0.127574
0.128366
0.124648
0.125306
0.124836
0.12736
0.121772
0.134143
0.126761
0.127707
0.124906
0.130057
0.127165
0.12842
0.126647
0.122526
0.126646
0.126598
0.12686
0.125337
0.124657
0.124753
0.125706
0.125035
0.124768
0.124153
0.124768
0.125217
0.124574
0.124448
0.124542
0.124426
0.124853
0.124401
0.124509
0.124429
0.124554
0.124454
0.1246
0.124499
0.124644
0.124506
0.124664
0.124522
0.124702
0.124587
0.124753
0.124611
0.124769
0.124671
0.124818
0.124683
0.124796
0.124737
0.124795
0.124792
0.124802
0.124867
0.124783
0.124835
0.124816
0.124945
0.12478
0.124959
0.124794
0.125015
0.125108
0.125016
0.124826
0.125039
0.124871
0.125044
0.12494
0.125111
0.124996
0.125129
0.125916
0.125213
0.125219
0.125303
0.126166
0.126169
0.125727
0.125994
0.126039
0.127945
0.127345
0.124234
0.126592
0.126174
0.129022
0.128252
0.131075
0.128155
0.121708
0.128156
0.133013
0.121514
0.128351
0.127988
0.128364
0.126462
0.125304
0.124613
0.1253
0.127055
0.12669
0.133784
0.12771
0.121973
0.12771
0.130315
0.127276
0.128214
0.1261
0.126646
0.124018
0.126956
0.127449
0.126163
0.124803
0.125047
0.12565
0.125542
0.124182
0.124768
0.124917
0.125107
0.124476
0.124563
0.124406
0.124544
0.124826
0.12449
0.124388
0.124504
0.124492
0.124593
0.124482
0.124627
0.124495
0.12466
0.124533
0.12469
0.124662
0.124753
0.124595
0.124771
0.124658
0.124866
0.124666
0.124835
0.12479
0.12484
0.124827
0.124891
0.12491
0.124862
0.124924
0.124874
0.124961
0.124814
0.124925
0.124827
0.12501
0.124826
0.125287
0.124781
0.125046
0.124928
0.125116
0.124933
0.125554
0.125353
0.125591
0.125679
0.126572
0.125865
0.125303
0.125763
0.126413
0.126236
0.12615
0.126031
0.126342
0.128004
0.127279
0.126596
0.12257
0.126612
0.128782
0.126744
0.130444
0.12603
0.128153
0.12711
0.132985
0.128348
0.127397
0.128418
0.127317
0.128362
0.124497
0.125299
0.124542
0.127016
0.121937
0.132646
0.126876
0.127708
0.124844
0.131167
0.127865
0.127464
0.126648
0.122738
0.126647
0.127158
0.127449
0.125058
0.124761
0.124809
0.125228
0.125436
0.124788
0.124194
0.124926
0.124884
0.125232
0.124436
0.12457
0.124453
0.124519
0.124401
0.124509
0.1245
0.124591
0.1245
0.125104
0.12453
0.125129
0.124616
0.124865
0.124619
0.124755
0.124635
0.124782
0.1247
0.124818
0.12479
0.125366
0.124751
0.125485
0.124832
0.124899
0.124904
0.124905
0.124971
0.124901
0.124957
0.124836
0.124945
0.124976
0.125011
0.125411
0.125026
0.124977
0.126167
0.124838
0.125093
0.125056
0.125479
0.126337
0.126543
0.126385
0.126597
0.126385
0.125754
0.125424
0.125947
0.125959
0.126424
0.126156
0.126316
0.12625
0.126982
0.127633
0.124183
0.12661
0.126473
0.129534
0.128298
0.130703
0.128156
0.122225
0.128157
0.132983
0.121805
0.128352
0.127995
0.128359
0.126332
0.125298
0.124403
0.1253
0.126622
0.126654
0.132876
0.127711
0.122539
0.12771
0.131172
0.127429
0.127336
0.126266
0.126646
0.124018
0.127096
0.127411
0.125407
0.125267
0.124768
0.12604
0.125744
0.124413
0.124788
0.124892
0.124914
0.125065
0.125136
0.124721
0.124577
0.124445
0.124513
0.124801
0.12519
0.124569
0.124622
0.124999
0.124672
0.125073
0.124716
0.124786
0.124753
0.124642
0.124886
0.124799
0.124917
0.1247
0.125124
0.125447
0.124905
0.125497
0.124906
0.125127
0.125112
0.125092
0.124928
0.125072
0.124945
0.124994
0.124906
0.125277
0.124865
0.125656
0.125194
0.125089
0.125901
0.125717
0.126005
0.125518
0.126385
0.126754
0.126385
0.126747
0.126385
0.126584
0.126385
0.12613
0.125959
0.126371
0.12629
0.126262
0.126704
0.12672
0.126898
0.127619
0.126615
0.122776
0.126643
0.129635
0.126873
0.13078
0.125854
0.128155
0.127181
0.132373
0.128349
0.12767
0.128354
0.127617
0.128359
0.124377
0.125299
0.124523
0.1275
0.122377
0.132922
0.126726
0.127708
0.124671
0.130381
0.127254
0.128693
0.126648
0.122861
0.126647
0.12748
0.127424
0.126376
0.125209
0.125269
0.126389
0.126358
0.124807
0.124224
0.124824
0.125658
0.124761
0.124639
0.124761
0.124825
0.124833
0.124479
0.124583
0.125018
0.124655
0.124523
0.124655
0.124602
0.124721
0.124639
0.124746
0.124612
0.124768
0.124874
0.124927
0.124923
0.125663
0.125153
0.1252
0.12574
0.125146
0.12542
0.125112
0.125102
0.125016
0.125036
0.12501
0.125062
0.125168
0.125827
0.125152
0.125058
0.125152
0.125278
0.125036
0.125527
0.126385
0.126567
0.126281
0.126784
0.126385
0.126738
0.126385
0.126585
0.126384
0.12666
0.126119
0.126411
0.126323
0.126576
0.126244
0.126418
0.126662
0.127929
0.127253
0.124361
0.126641
0.126535
0.129144
0.128351
0.130173
0.128158
0.12231
0.128158
0.132462
0.122034
0.128352
0.127893
0.128358
0.126448
0.125298
0.124521
0.125299
0.127576
0.126691
0.132698
0.127711
0.122595
0.12771
0.130975
0.127412
0.128745
0.126101
0.126646
0.124074
0.128333
0.127829
0.125622
0.125252
0.125264
0.126275
0.126295
0.124418
0.124807
0.124697
0.125781
0.124986
0.124767
0.124698
0.125004
0.124812
0.125286
0.125325
0.124968
0.124613
0.125203
0.124626
0.125241
0.124626
0.12484
0.124775
0.125463
0.12547
0.12539
0.125018
0.125379
0.125664
0.125205
0.125266
0.125695
0.125152
0.125765
0.125152
0.125193
0.125139
0.125062
0.125201
0.125031
0.126465
0.12611
0.126774
0.126504
0.125541
0.12574
0.125806
0.125583
0.126212
0.126385
0.126598
0.126385
0.126686
0.126385
0.126601
0.126372
0.126661
0.126385
0.126438
0.126352
0.126522
0.126323
0.126526
0.126059
0.126418
0.127957
0.127626
0.126647
0.123055
0.126865
0.130135
0.127154
0.130779
0.126067
0.128155
0.12685
0.132288
0.12835
0.127421
0.128363
0.127546
0.128361
0.124292
0.125321
0.124795
0.127127
0.123147
0.132843
0.127087
0.127709
0.124782
0.131076
0.127383
0.128274
0.126648
0.122864
0.126647
0.129224
0.12761
0.125911
0.125313
0.125252
0.126344
0.125744
0.124833
0.124438
0.124959
0.125271
0.125782
0.125621
0.125665
0.124894
0.124866
0.124896
0.125648
0.124987
0.125254
0.125168
0.125552
0.125199
0.125684
0.125804
0.125733
0.12549
0.125623
0.125424
0.126296
0.125412
0.125399
0.125368
0.125948
0.125389
0.125146
0.125651
0.126568
0.125385
0.126314
0.125802
0.125409
0.126163
0.126598
0.126723
0.126823
0.126567
0.12655
0.126784
0.126557
0.125636
0.125804
0.125863
0.126385
0.12662
0.126385
0.126601
0.126367
0.126543
0.126378
0.126665
0.126385
0.126479
0.12635
0.126549
0.1263
0.126418
0.126129
0.127717
0.128053
0.12457
0.126685
0.126699
0.130118
0.128405
0.130759
0.128159
0.122384
0.128159
0.131437
0.12229
0.128353
0.12784
0.128358
0.126531
0.125298
0.126306
0.126548
0.127779
0.126817
0.132764
0.127712
0.122654
0.127711
0.13036
0.12759
0.129228
0.126271
0.126647
0.124385
0.129308
0.127859
0.127146
0.125306
0.12592
0.126651
0.125992
0.124692
0.124833
0.125876
0.12672
0.125793
0.125784
0.125234
0.12499
0.124944
0.12499
0.125349
0.125076
0.125932
0.125802
0.125513
0.125424
0.125518
0.126264
0.126251
0.126265
0.125559
0.12555
0.126285
0.12557
0.125428
0.126289
0.125855
0.125633
0.12596
0.126025
0.126782
0.125865
0.126415
0.125872
0.126237
0.126843
0.126962
0.126847
0.126756
0.126705
0.126784
0.126796
0.126139
0.125912
0.126026
0.12638
0.126563
0.126384
0.126705
0.126367
0.126543
0.126289
0.126698
0.126385
0.126634
0.126364
0.126731
0.126299
0.126617
0.126063
0.126756
0.127839
0.128003
0.126691
0.123072
0.126775
0.129787
0.127171
0.130199
0.12623
0.128157
0.127546
0.131945
0.12835
0.127448
0.128356
0.127578
0.12836
0.124285
0.127621
0.12663
0.127869
0.123541
0.132122
0.126879
0.127709
0.12489
0.131206
0.127449
0.129297
0.126775
0.123052
0.126648
0.129168
0.128609
0.126271
0.125672
0.125868
0.126899
0.127054
0.124886
0.1247
0.125356
0.126744
0.126488
0.12559
0.125548
0.125941
0.125939
0.125013
0.125173
0.125787
0.125889
0.126014
0.12606
0.126235
0.126273
0.126126
0.126164
0.126127
0.125792
0.125559
0.125873
0.125589
0.126101
0.126195
0.126113
0.126858
0.127505
0.127443
0.126515
0.126197
0.126296
0.126837
0.126854
0.126703
0.126847
0.126961
0.126656
0.126866
0.126809
0.126815
0.126701
0.126733
0.126033
0.126544
0.126387
0.126562
0.126385
0.126549
0.126355
0.126687
0.126376
0.126626
0.126375
0.126727
0.126351
0.126651
0.126312
0.126473
0.126285
0.128968
0.128961
0.124644
0.126732
0.127865
0.130736
0.12846
0.130968
0.12816
0.122787
0.12816
0.132244
0.122458
0.128353
0.127782
0.128359
0.126496
0.125298
0.12797
0.126695
0.127799
0.126912
0.133317
0.127714
0.122826
0.127713
0.13115
0.127521
0.128904
0.128351
0.126647
0.124065
0.129405
0.128589
0.126714
0.126813
0.126119
0.126871
0.127095
0.124786
0.124886
0.125473
0.126321
0.126575
0.125608
0.126254
0.126215
0.126355
0.125728
0.125436
0.126097
0.126044
0.126041
0.126079
0.126051
0.126238
0.126146
0.126126
0.126164
0.12642
0.126089
0.125906
0.125986
0.126436
0.127103
0.127201
0.127602
0.127584
0.127601
0.126649
0.126859
0.126474
0.127291
0.126703
0.126627
0.126703
0.126847
0.126799
0.126765
0.126871
0.126807
0.126881
0.126112
0.126101
0.126192
0.126514
0.12633
0.12651
0.12637
0.126615
0.126368
0.126606
0.126311
0.126586
0.126351
0.126648
0.126304
0.126558
0.126231
0.126519
0.128816
0.128993
0.126739
0.123302
0.127851
0.130842
0.127554
0.131033
0.126167
0.128158
0.126892
0.131243
0.12835
0.127431
0.128355
0.127539
0.128359
0.124251
0.128322
0.126946
0.127485
0.123381
0.13341
0.127046
0.127711
0.124689
0.130587
0.12777
0.129967
0.128603
0.123267
0.126648
0.12932
0.128729
0.127804
0.126848
0.127123
0.127662
0.126818
0.125688
0.124907
0.125899
0.1263
0.126183
0.125833
0.125848
0.126388
0.126352
0.126355
0.126363
0.126079
0.126097
0.126014
0.126041
0.126014
0.126051
0.126079
0.126247
0.126127
0.126327
0.127182
0.126006
0.127456
0.127598
0.127834
0.127602
0.127756
0.127549
0.127706
0.127548
0.127831
0.127379
0.127241
0.126955
0.126916
0.126631
0.126703
0.126693
0.12679
0.126599
0.126867
0.126796
0.126209
0.126133
0.126524
0.126509
0.126491
0.126247
0.126578
0.126345
0.126582
0.126318
0.12658
0.126343
0.126607
0.126252
0.126644
0.12625
0.126519
0.126489
0.129914
0.128752
0.124207
0.126757
0.12788
0.130403
0.128505
0.130307
0.128162
0.122942
0.128162
0.132401
0.122724
0.128353
0.127752
0.128358
0.126575
0.125298
0.129097
0.127001
0.128195
0.126964
0.132687
0.127714
0.122986
0.127713
0.130987
0.127825
0.130018
0.128972
0.126648
0.124465
0.129197
0.129133
0.126851
0.126811
0.126849
0.127748
0.127694
0.125891
0.126583
0.126466
0.126534
0.126687
0.126034
0.126096
0.126386
0.126354
0.126352
0.126379
0.126097
0.126079
0.12628
0.126892
0.126689
0.126221
0.126618
0.126274
0.126621
0.127179
0.127095
0.126941
0.127334
0.127776
0.127602
0.12778
0.12756
0.127696
0.127451
0.127834
0.127892
0.127607
0.127679
0.127682
0.126857
0.126875
0.126673
0.12675
0.126648
0.126702
0.126679
0.126804
0.126688
0.126421
0.126509
0.126483
0.126303
0.126489
0.126338
0.126511
0.126305
0.126616
0.12628
0.126691
0.12627
0.126578
0.126252
0.126545
0.126236
0.126545
0.129945
0.128555
0.126758
0.123117
0.128378
0.131252
0.127782
0.131288
0.126413
0.12816
0.127379
0.132132
0.12835
0.127467
0.129451
0.127579
0.128362
0.124301
0.129341
0.127312
0.128463
0.12385
0.130999
0.127097
0.127712
0.124924
0.131087
0.128087
0.129639
0.129683
0.12331
0.126649
0.129346
0.128835
0.127216
0.126842
0.126815
0.127571
0.127748
0.12653
0.12659
0.127276
0.12702
0.128236
0.12783
0.12738
0.126354
0.126341
0.126354
0.126362
0.126332
0.126097
0.126272
0.127244
0.1267
0.127442
0.126913
0.127431
0.126792
0.127493
0.127186
0.127589
0.127596
0.127589
0.127688
0.127413
0.127633
0.127433
0.127711
0.127892
0.127688
0.127713
0.127688
0.127441
0.12708
0.126603
0.12683
0.126506
0.126675
0.126684
0.126795
0.126786
0.126505
0.126513
0.126482
0.12627
0.12649
0.12619
0.126489
0.126314
0.126556
0.126297
0.126643
0.12627
0.126564
0.126077
0.126578
0.126215
0.126545
0.126296
0.129467
0.128708
0.12431
0.126757
0.128592
0.131244
0.128549
0.131286
0.128163
0.123012
0.128163
0.131528
0.122425
0.128353
0.131635
0.128365
0.126512
0.125298
0.129715
0.12768
0.127804
0.127009
0.13116
0.127715
0.123379
0.127714
0.130803
0.128429
0.130907
0.129496
0.126648
0.124413
0.129356
0.128875
0.128439
0.126767
0.12723
0.128533
0.127627
0.127212
0.127208
0.127714
0.128217
0.128188
0.128295
0.127195
0.126341
0.126333
0.126872
0.126592
0.126478
0.126857
0.127051
0.127158
0.127499
0.127527
0.127828
0.127828
0.127745
0.127454
0.127404
0.127301
0.12759
0.127483
0.12759
0.127568
0.127435
0.127579
0.127423
0.127441
0.127677
0.127688
0.127522
0.127535
0.127521
0.126678
0.126602
0.126725
0.126456
0.126481
0.126694
0.12648
0.126462
0.126516
0.12627
0.126482
0.126271
0.126484
0.126298
0.12653
0.126292
0.126563
0.126238
0.126645
0.125976
0.126564
0.126106
0.126578
0.125977
0.12658
0.12948
0.129246
0.126758
0.123254
0.129192
0.131117
0.127913
0.130612
0.12645
0.128161
0.127163
0.132089
0.12835
0.127372
0.131874
0.127692
0.128368
0.12434
0.13077
0.127533
0.129043
0.124223
0.131834
0.126794
0.127713
0.125034
0.131218
0.128406
0.130975
0.129834
0.123512
0.126649
0.12928
0.129227
0.127446
0.126842
0.126803
0.128563
0.128489
0.127232
0.12826
0.128341
0.128294
0.128292
0.128207
0.128343
0.127021
0.126657
0.127758
0.12802
0.127953
0.127188
0.127822
0.127608
0.127769
0.127649
0.127828
0.12777
0.127896
0.127912
0.127301
0.127276
0.127353
0.127584
0.127385
0.127419
0.127445
0.127419
0.127421
0.127318
0.127688
0.127501
0.127531
0.127521
0.127483
0.126902
0.126747
0.12659
0.126677
0.126391
0.12648
0.126334
0.126502
0.126396
0.12648
0.126253
0.126484
0.126266
0.126552
0.126298
0.126538