/*--------------------------------*- C++ -*----------------------------------*\
| =========                 |                                                 |
| \\      /  F ield         | OpenFOAM: The Open Source CFD Toolbox           |
|  \\    /   O peration     | Version:  2312                                  |
|   \\  /    A nd           | Website:  www.openfoam.com                      |
|    \\/     M anipulation  |                                                 |
\*---------------------------------------------------------------------------*/
FoamFile
{
    version     2.0;
    format      ascii;
    arch        "LSB;label=32;scalar=64";
    class       surfaceScalarField;
    location    "1";
    object      phi;
}
// * * * * * * * * * * * * * * * * * * * * * * * * * * * * * * * * * * * * * //

dimensions      [0 3 -1 0 0 0 0];

oriented        oriented;

internalField   nonuniform List<scalar> 
99400
(
8.63478e-06
7.99696e-05
-4.72413e-06
0.000106225
-1.53395e-05
0.000107947
-1.26504e-05
9.93317e-05
1.04453e-05
8.38364e-05
-2.22695e-05
0.000144788
-1.83653e-05
0.00011356
2.62523e-05
7.85098e-05
5.42253e-05
0.000101079
2.78348e-05
0.000161639
3.73293e-06
0.000165838
-2.24233e-05
0.000174716
-2.75565e-05
0.000160852
1.66191e-05
0.000119047
5.36516e-05
0.000134044
4.2965e-05
0.000189978
1.95462e-05
0.000211325
8.60536e-06
0.000207889
1.00619e-05
0.000204972
3.51513e-06
0.000222894
-1.01533e-05
0.000240437
-2.00474e-05
0.000247576
-7.48679e-06
0.000236561
1.70239e-05
0.000236601
1.63409e-05
0.000274334
7.25436e-06
0.000295909
3.38844e-06
0.000304482
1.98569e-06
0.000316476
-1.22691e-07
0.00033234
-1.61809e-06
0.000347616
-4.62491e-08
0.000361203
7.70954e-07
0.00037941
-3.19453e-07
0.000399611
-6.60271e-07
0.000418035
-1.39425e-07
0.00043727
-3.99111e-07
0.000459114
-1.36256e-06
0.000481896
-1.49349e-06
0.000504201
-4.06332e-07
0.000527237
-3.27327e-07
0.000553662
-8.05291e-07
0.000580861
-6.40201e-07
0.000608143
-2.23981e-07
0.00063716
-1.70653e-07
0.000668197
-1.72056e-07
0.000700403
1.15116e-07
0.000733814
9.75047e-08
0.000769438
1.42164e-07
0.000806395
-6.62097e-08
0.000845448
-2.47555e-08
0.000885865
9.07472e-08
0.000885792
1.11198e-07
0.000845219
2.00256e-07
0.00080635
1.29461e-07
0.000769491
1.3235e-07
0.000734097
3.94168e-07
0.000700141
5.82489e-07
0.000668062
6.67e-07
0.00063749
5.25085e-07
0.000608449
1.84505e-07
0.000580724
1.40478e-07
0.000553785
6.07277e-07
0.000527856
4.07349e-07
0.000504269
-9.48387e-07
0.000482289
-1.16322e-06
0.000459068
1.66259e-06
0.000434972
7.16553e-07
0.00041864
-8.08614e-07
0.000400047
1.7491e-06
0.000377673
2.54326e-06
0.00036198
7.16871e-07
0.000347947
-1.10368e-06
0.000332053
-2.65082e-06
0.00031662
-5.2311e-06
0.000303192
-1.28468e-05
0.000294437
-1.66129e-05
0.000277414
5.08743e-06
0.00023941
2.01388e-05
0.000234071
1.19693e-05
0.000245849
-1.4208e-06
0.000240158
-9.2535e-06
0.000224179
-8.66364e-06
0.000205839
-1.87369e-05
0.00020702
-4.08557e-05
0.000210026
-5.24556e-05
0.000190889
-1.74261e-05
0.000136047
2.83585e-05
0.000117439
2.89413e-05
0.000155138
9.6336e-07
0.000176538
-2.23833e-05
0.000165081
-5.43727e-05
0.000167235
-2.89332e-05
0.000103613
2.22267e-05
7.19667e-05
2.38955e-05
0.000115796
-7.92793e-06
0.000143895
2.51382e-05
7.38676e-05
3.1654e-05
9.55056e-05
1.66479e-05
0.00011234
6.44376e-06
0.000103064
9.50378e-05
3.16224e-05
4.82827e-05
-6.60545e-06
0.000144393
-5.75815e-05
0.000158863
-2.74625e-05
6.91393e-05
-1.83993e-06
5.81339e-05
-6.26246e-05
0.000205495
-4.45938e-05
9.54523e-05
1.25391e-05
2.12815e-05
6.46721e-05
4.88475e-05
8.21139e-05
0.000144101
-1.88573e-06
0.000249744
-8.3091e-05
0.000255826
-5.62077e-05
0.000133871
-4.08621e-07
6.31327e-05
5.66905e-05
7.6822e-05
5.9766e-05
0.000186777
-1.06693e-05
0.000281638
-2.39265e-05
0.000221011
1.75997e-07
0.000180737
1.12232e-05
0.000211695
-7.86004e-06
0.000259365
-3.21319e-05
0.000271686
-1.50577e-05
0.000219315
1.21595e-05
0.000209206
1.98216e-05
0.000266476
4.10476e-06
0.000311424
-6.38129e-06
0.000314753
-1.14984e-06
0.000311016
-1.15733e-06
0.000332108
-4.01779e-06
0.000350224
-7.392e-07
0.00035766
1.48785e-06
0.000376905
-8.18461e-07
0.000401626
-1.41263e-06
0.000418323
9.32051e-07
0.000434606
8.4175e-07
0.000458868
-2.59803e-06
0.000484985
-2.76115e-06
0.000503994
-5.07611e-07
0.000524597
-3.97633e-07
0.000553146
-1.04266e-06
0.000581081
-7.5794e-07
0.000607412
-1.94995e-07
0.000636129
-2.29212e-07
0.000667741
-2.14467e-07
0.000699874
8.98527e-08
0.000732971
1.66e-07
0.000768796
3.10989e-07
0.000805658
-1.25763e-07
0.000845265
-1.20391e-07
0.00088521
1.1703e-07
0.000884904
1.92492e-07
0.000844524
2.80449e-07
0.00080567
6.33126e-08
0.000769144
7.103e-08
0.00073355
3.86002e-07
0.000699312
7.0806e-07
0.00066725
1.0086e-06
0.000636722
7.2282e-07
0.000608289
3.35617e-08
0.000580988
-8.22913e-09
0.00055342
1.74611e-06
0.000525715
1.4546e-06
0.000504191
-2.07605e-06
0.000485469
-1.8108e-06
0.000458466
2.25799e-06
0.000430585
1.57715e-06
0.000419015
-1.19629e-06
0.000402529
2.25181e-06
0.000373949
5.37289e-06
0.000358594
1.83205e-06
0.000351236
-3.06554e-07
0.000333952
4.60471e-06
0.000311481
-1.34537e-06
0.000308925
-1.56957e-05
0.000308584
-1.09e-05
0.000272421
1.21652e-05
0.000216166
2.98287e-05
0.000216236
1.24278e-05
0.000263085
-7.11318e-06
0.000259544
1.87137e-07
0.000216725
2.26452e-05
0.000183247
1.50281e-05
0.000214501
-5.36339e-05
0.000278566
-5.56866e-05
0.000192818
1.22219e-06
7.9016e-05
5.70162e-05
6.15283e-05
8.64585e-05
0.000125598
1.3558e-05
0.000249343
-6.83084e-05
0.000246856
-6.41701e-05
0.000163002
-1.66114e-05
5.59567e-05
4.44547e-05
1.08063e-05
6.04546e-05
9.97187e-05
-1.42207e-06
0.000205695
3.23619e-05
4.00063e-05
6.2224e-05
6.55649e-05
1.09584e-05
0.000163541
-1.12205e-05
0.000125186
8.37636e-05
-2.19726e-05
7.01676e-05
-1.24493e-05
0.000134778
-1.27975e-05
0.000159115
-2.93451e-05
8.55779e-05
-1.55055e-05
4.41907e-05
-4.82936e-06
0.000194703
-5.42784e-06
9.59318e-05
2.37887e-06
1.33515e-05
-2.66497e-06
5.37638e-05
-7.67389e-06
0.000148972
-5.17917e-06
0.00024712
-2.47003e-08
0.00025053
-2.76428e-06
0.000136453
-1.20819e-05
7.22906e-05
-1.58814e-05
8.04525e-05
-1.95944e-05
0.000190315
5.59738e-06
0.000256264
8.8757e-06
0.000217537
-1.73295e-05
0.00020673
-1.9472e-05
0.000213619
-9.21983e-06
0.000248884
-2.59363e-06
0.000264822
2.29272e-07
0.000216242
-8.24322e-07
0.000210002
-2.94877e-06
0.000268321
1.47228e-07
0.000308038
3.38332e-06
0.000311211
-2.75602e-07
0.000314352
-8.15988e-07
0.000332309
1.23772e-06
0.000347816
-2.58291e-07
0.000358783
-1.71251e-06
0.000377968
-5.43821e-07
0.000400049
1.3575e-07
0.000417212
-1.58141e-06
0.000435871
-1.89777e-06
0.000458711
-4.22514e-07
0.000483015
-2.32749e-07
0.000503284
-1.05288e-06
0.000524873
-1.08526e-06
0.000552608
-8.42257e-07
0.000580238
-6.80312e-07
0.000606621
-2.70481e-07
0.00063506
-2.37195e-07
0.000667018
-2.05278e-07
0.000699118
1.36431e-07
0.000731871
1.55847e-07
0.000767982
1.62843e-07
0.000804819
-9.54889e-08
0.000844652
-4.68334e-08
0.000884248
1.12741e-07
0.000883829
1.51733e-07
0.000843612
2.62059e-07
0.000804727
1.05939e-07
0.000768506
5.61259e-08
0.000732843
4.11386e-07
0.000698232
6.92623e-07
0.000666278
7.96109e-07
0.000635959
5.49963e-07
0.000607908
6.10782e-07
0.000580329
4.64953e-07
0.000552994
-3.40726e-07
0.000525975
-2.0264e-07
0.000503532
1.35414e-06
0.000483417
1.09929e-06
0.000458247
6.769e-08
0.000431165
7.21896e-07
0.000417929
1.9973e-06
0.000400846
1.09656e-06
0.000374459
-9.70206e-07
0.000360287
1.05848e-06
0.000348854
1.43436e-06
0.000333239
-2.62099e-06
0.000315211
4.31259e-07
0.000305567
4.37235e-06
0.000304353
7.58194e-07
0.000275754
9.27256e-07
0.000215737
4.57779e-06
0.000212336
9.11908e-06
0.000258306
1.78434e-05
0.000250591
1.87888e-05
0.000215562
-6.78665e-06
0.00020861
-5.49862e-06
0.000213016
1.97907e-05
0.000253094
1.72032e-05
0.000195232
1.53527e-05
8.06929e-05
6.77947e-06
6.9941e-05
2.44952e-06
0.000129768
8.78093e-06
0.000242869
7.39772e-06
0.000248117
5.38698e-06
0.000164878
4.10428e-07
6.08053e-05
1.4598e-06
9.63368e-06
3.43025e-06
9.76293e-05
1.38274e-05
0.000195184
1.50474e-05
3.86812e-05
-1.18791e-05
9.23866e-05
-1.86098e-05
0.000170175
-1.7248e-06
0.000108214
8.19535e-05
-1.98105e-05
8.98938e-05
1.77378e-06
0.000113106
8.87507e-06
0.000151921
-7.35245e-06
0.0001017
7.91011e-06
2.88231e-05
2.43805e-05
0.000178125
1.39785e-05
0.000106218
1.77571e-05
9.45077e-06
1.66717e-05
5.47212e-05
-1.36492e-05
0.000179158
-3.57765e-06
0.000236927
4.53877e-06
0.000242278
-1.31884e-05
0.000154022
-5.64881e-06
6.45897e-05
-1.21608e-05
8.67965e-05
-1.99945e-05
0.000197969
4.94657e-05
0.000186621
6.25948e-05
0.000204206
-9.43654e-06
0.000278545
-2.58396e-05
0.000229797
-1.58939e-06
0.000224399
-6.4436e-06
0.000269432
-4.91741e-06
0.000214463
7.57312e-06
0.000197251
5.86001e-06
0.00026975
2.94647e-06
0.000310654
4.55302e-06
0.000309293
6.10684e-07
0.000317965
-2.16406e-06
0.000334738
-2.01463e-07
0.000345491
2.1926e-07
0.000357984
-8.04595e-07
0.000378595
-3.86225e-07
0.000399215
6.55401e-07
0.000415734
-3.42636e-07
0.000436411
-1.92048e-06
0.000459809
-1.43999e-06
0.000482032
-9.70028e-07
0.000502287
-7.62322e-07
0.000524113
-7.77008e-07
0.000552044
-8.76658e-07
0.000579731
-5.9695e-07
0.000605705
-2.08528e-07
0.000634004
-2.06771e-07
0.000666318
-1.52096e-07
0.000698331
1.1134e-07
0.00073084
1.44729e-07
0.000767144
2.51527e-07
0.000803869
-8.42356e-08
0.000844104
-4.18426e-08
0.000883279
1.24567e-07
0.000882735
1.38823e-07
0.000842713
2.33777e-07
0.000803788
9.24649e-08
0.000767843
9.50388e-08
0.000732072
4.26702e-07
0.000697168
6.81273e-07
0.000665324
7.6915e-07
0.000635204
6.53367e-07
0.000607388
4.53692e-07
0.000579922
2.41545e-07
0.000552627
-5.88293e-08
0.000525723
3.69279e-07
0.000502577
6.91162e-07
0.000482593
-3.17719e-07
0.000458776
3.9233e-07
0.000429998
6.59732e-07
0.000417225
6.17839e-07
0.000400472
1.26843e-06
0.000373412
1.11529e-06
0.000360061
2.82609e-06
0.000346781
1.11523e-07
0.000335608
-4.5091e-06
0.000319502
-8.16664e-07
0.000301563
-2.31317e-06
0.000305553
-7.58091e-06
0.000280736
4.22073e-06
0.000203674
8.4544e-06
0.000207852
2.28193e-06
0.000264234
2.51982e-05
0.00022744
1.11215e-05
0.000229414
-6.21573e-05
0.000281673
-5.2388e-05
0.000203044
1.83443e-05
0.000182179
1.32404e-05
0.000200157
7.47887e-06
8.62864e-05
1.28527e-05
6.44084e-05
1.27785e-06
0.000141186
7.07833e-06
0.000236932
1.27071e-05
0.000242365
-1.24328e-05
0.000189883
-1.58972e-05
6.41427e-05
-9.81703e-06
3.42833e-06
-1.88368e-05
0.000106532
7.46933e-07
0.000175493
1.69055e-05
2.24156e-05
-2.06429e-06
0.000111255
2.45802e-05
0.000143438
5.24102e-05
8.02934e-05
0.000134274
1.52951e-05
7.45132e-05
1.81886e-05
0.000110126
1.98001e-05
0.000150221
1.23119e-05
0.000109088
1.2725e-05
2.83063e-05
8.28152e-06
0.000182461
4.1518e-06
0.000110234
2.565e-06
1.09112e-05
-1.6065e-05
7.32235e-05
-2.03034e-05
0.000183259
-8.09169e-06
0.000224585
3.29409e-06
0.000230754
9.74546e-07
0.000156188
-1.63576e-05
8.17626e-05
-2.65909e-05
9.68589e-05
-2.43219e-05
0.000195525
-3.71672e-05
0.000199284
-3.1362e-05
0.000198203
-1.6123e-06
0.00024859
3.99884e-06
0.000223972
-3.7322e-06
0.000231902
2.01466e-06
0.000263452
7.56226e-07
0.00021548
-1.03616e-05
0.000208115
-6.70076e-06
0.000265822
-3.18123e-06
0.000306846
-3.25636e-06
0.000309065
-1.79141e-06
0.000316182
-6.8597e-07
0.000333299
-5.48884e-07
0.000345005
-1.28795e-06
0.000358356
-1.01509e-06
0.000377938
-9.03621e-07
0.0003987
-1.12869e-06
0.000415539
-1.09393e-06
0.000435934
-4.7309e-07
0.000458726
-4.69875e-07
0.000481543
-5.45435e-07
0.000501854
-1.09647e-06
0.000524132
-1.1244e-06
0.000551513
-8.16728e-07
0.000578838
-6.86178e-07
0.000604962
-3.14812e-07
0.00063299
-2.28563e-07
0.000665558
-1.77875e-07
0.000697574
1.36822e-07
0.000729785
2.0281e-07
0.000766302
1.98742e-07
0.00080306
-1.53582e-07
0.000843604
-9.41596e-08
0.000882326
1.10026e-07
0.000881638
2.0865e-07
0.000841762
3.21137e-07
0.000802862
5.28897e-08
0.000767335
3.26088e-08
0.000731352
3.74725e-07
0.000696119
7.60703e-07
0.000664264
1.02889e-06
0.000634292
5.97213e-07
0.000607207
4.83121e-07
0.00057945
3.32999e-07
0.00055222
7.63892e-11
0.000525522
-2.04383e-07
0.000502274
6.2536e-07
0.000481277
1.21273e-06
0.000457726
6.55627e-07
0.000430113
1.16942e-06
0.000416289
1.49537e-06
0.000399744
1.36362e-06
0.000373161
1.03647e-06
0.000360022
1.11967e-06
0.000346349
2.02314e-06
0.000334371
3.71899e-06
0.000317488
3.15329e-06
0.000301832
6.33929e-06
0.000302084
1.2182e-05
0.000274617
2.25961e-06
0.000213342
-2.2096e-06
0.000212077
3.04603e-06
0.000258746
-3.21548e-06
0.000233473
2.76338e-06
0.00022322
3.33517e-05
0.000250879
4.01461e-05
0.00019605
2.63795e-05
0.000195763
2.74311e-05
0.00019893
1.82649e-05
9.52842e-05
5.78687e-06
7.67223e-05
8.99842e-07
0.000145921
8.77338e-06
0.000228918
2.15564e-05
0.000229449
2.00051e-05
0.000191298
-5.14331e-07
8.45317e-05
-7.84341e-06
1.0636e-05
-6.63922e-06
0.000105213
-7.26366e-06
0.000176009
-1.3112e-05
2.81601e-05
-1.19322e-05
0.000109975
-1.24791e-05
0.000143895
-1.48165e-05
8.25413e-05
0.000119371
1.80137e-05
5.64125e-05
5.95217e-06
0.000122095
5.86441e-06
0.000150219
2.2511e-06
0.000112601
9.96976e-06
2.04779e-05
9.54961e-06
0.000182768
-2.54991e-06
0.000122216
-2.10365e-06
1.03436e-05
-1.15595e-05
8.25483e-05
-1.98218e-05
0.000191385
9.49811e-06
0.00019513
2.77165e-05
0.000212392
-1.29934e-06
0.000185048
-7.31502e-06
8.7613e-05
-1.39561e-06
9.07719e-05
1.46494e-05
0.000179301
2.58459e-05
0.000187899
-1.57363e-07
0.000224007
8.23255e-06
0.000239996
5.36739e-06
0.000226619
-1.14816e-05
0.00024852
-2.94321e-06
0.000254677
1.15054e-06
0.00021114
4.30322e-06
0.000204706
1.07048e-06
0.000268779
1.83808e-06
0.000305788
4.6665e-06
0.000305933
4.93808e-07
0.000320034
-5.93374e-07
0.000334051
5.17533e-07
0.000343542
-1.22133e-07
0.000358628
-1.02426e-06
0.000378454
-6.62649e-07
0.000397935
-7.66074e-07
0.000415218
-1.97164e-06
0.000436696
-1.97562e-06
0.000458264
-4.57067e-07
0.000479538
-3.40739e-07
0.000501225
-7.93416e-07
0.000524049
-9.24395e-07
0.000551083
-9.12521e-07
0.000578238
-5.94509e-07
0.000604027
-1.42034e-07
0.000631891
-1.58675e-07
0.000664897
-1.49316e-07
0.000696854
1.07618e-07
0.000728784
1.46529e-07
0.000765483
2.02128e-07
0.000802186
-1.14804e-07
0.000843064
-3.42242e-08
0.000881347
1.40808e-07
0.000880565
1.1633e-07
0.00084093
1.98661e-07
0.000801962
6.24352e-08
0.000766692
5.2221e-08
0.000730617
4.09848e-07
0.000695051
6.80732e-07
0.000663315
7.45561e-07
0.000633581
6.88137e-07
0.000606646
6.89871e-07
0.00057886
4.04506e-07
0.000551942
-5.74919e-07
0.000525967
-4.59789e-07
0.000501646
9.71089e-07
0.00047936
1.07279e-06
0.000457157
1.46782e-06
0.000429276
8.29074e-07
0.000416503
9.29784e-07
0.00039924
1.42532e-06
0.000372279
1.69458e-07
0.00036091
1.66356e-06
0.000344503
2.69297e-06
0.000333008
-1.59238e-06
0.000321453
-2.47652e-06
0.000302412
-2.44601e-06
0.000301764
-4.60054e-06
0.000276495
-5.47633e-07
0.000209031
4.46484e-06
0.000206818
9.00346e-06
0.00025397
-6.89135e-06
0.000249138
-5.63471e-06
0.000221746
3.52466e-06
0.000241515
-2.54183e-05
0.000224793
-1.60464e-05
0.000186203
3.05399e-06
0.000179651
1.10284e-05
8.7138e-05
4.48011e-06
8.31121e-05
-2.48579e-05
0.000175103
-9.92177e-06
0.000213838
1.76906e-05
0.000201701
1.2784e-05
0.000196067
2.29662e-06
9.48912e-05
2.77648e-06
1.00277e-05
-6.51879e-06
0.000114392
-4.74893e-06
0.000174125
-1.29784e-06
2.45974e-05
5.82868e-06
0.000102748
-3.76701e-06
0.000153398
-3.46567e-05
0.000113338
8.46276e-05
4.53332e-06
5.17906e-05
-7.27239e-07
0.000127264
-1.98159e-06
0.000151382
1.45948e-06
0.000109057
6.84086e-07
2.11481e-05
-3.77912e-07
0.000183714
2.86895e-06
0.000118853
-3.82545e-06
1.69089e-05
-1.61675e-05
9.47619e-05
-1.64762e-05
0.000191555
-7.66579e-06
0.000186181
-2.84411e-06
0.000207424
5.40676e-06
0.000176642
-6.34602e-06
9.92059e-05
-2.11213e-05
0.000105373
-2.80009e-05
0.000186004
-3.19419e-05
0.00019165
-1.9478e-05
0.000211347
-1.20477e-05
0.000232363
-4.29213e-06
0.00021865
3.02867e-06
0.000240972
4.4188e-06
0.000253054
7.70057e-08
0.000215236
-1.24166e-05
0.000216944
-1.01266e-05
0.000266221
-5.92974e-06
0.000301304
-5.98578e-06
0.000305688
-2.61272e-06
0.000316344
-1.27993e-06
0.000332387
-1.62183e-06
0.000343536
-1.41572e-06
0.000358058
-6.25085e-07
0.00037728
-7.00749e-07
0.00039761
-7.37172e-07
0.000414834
-5.20886e-07
0.000436041
-5.3723e-07
0.00045782
-1.02221e-06
0.000479543
-7.99632e-07
0.000500497
-9.89846e-07
0.000523711
-1.09016e-06
0.000550626
-7.362e-07
0.000577302
-4.73845e-07
0.000603154
-2.13388e-07
0.000630992
-2.29574e-07
0.000664242
-1.5461e-07
0.000696076
1.29586e-07
0.000727763
1.57504e-07
0.000764683
1.94643e-07
0.000801339
-1.5986e-07
0.00084257
-9.327e-08
0.000880391
7.6325e-08
0.000879506
2.3929e-07
0.000839918
3.35588e-07
0.000801056
-2.00605e-08
0.000766276
1.27472e-08
0.000729848
3.46941e-07
0.000694014
7.98831e-07
0.000662192
1.0948e-06
0.000632646
5.33821e-07
0.000606597
2.71765e-07
0.000578541
1.85749e-07
0.000551473
1.6288e-07
0.000525461
-2.44134e-09
0.000501305
7.54919e-07
0.000478121
1.08055e-06
0.00045637
2.16068e-07
0.000429702
1.11973e-06
0.000415179
1.10278e-06
0.000398858
1.35963e-06
0.00037164
2.47124e-06
0.000359435
1.95012e-06
0.000344677
2.13882e-06
0.000332487
5.66035e-06
0.000317615
5.93362e-06
0.000301837
9.41962e-06
0.000297991
1.5398e-05
0.000270246
3.09825e-06
0.000221073
-5.60034e-06
0.000215269
-2.43202e-06
0.000250568
5.51553e-06
0.000240962
1.19298e-05
0.000215118
1.96349e-05
0.000233606
3.28509e-05
0.000211381
2.96965e-05
0.000189168
2.21458e-05
0.000187025
7.02175e-06
0.000102093
-1.83766e-06
9.18046e-05
4.56302e-06
0.000168549
7.42194e-06
0.000210831
1.74981e-05
0.000191484
1.87698e-05
0.000194657
4.00241e-06
0.000109526
-3.21722e-06
1.71251e-05
2.60244e-06
0.000108453
3.67189e-06
0.000172938
-1.11904e-06
2.92833e-05
8.56559e-07
0.00010067
-3.22241e-06
0.00015738
-2.21566e-07
0.000110244
8.4318e-05
3.04646e-06
4.86552e-05
3.75361e-06
0.000126465
7.74672e-06
0.000147294
4.74452e-07
0.000116226
2.42834e-06
1.9082e-05
8.35942e-06
0.000177665
-2.97893e-07
0.000127391
-2.7598e-06
1.92476e-05
-6.6561e-06
9.85251e-05
-1.05361e-05
0.000195296
4.99918e-06
0.000170505
1.3461e-05
0.000198813
4.02875e-06
0.00018592
2.76002e-06
0.000100306
8.85622e-06
9.91069e-05
9.13093e-06
0.000185548
-5.18621e-06
0.000205776
-5.897e-06
0.000211859
1.28973e-05
0.000213364
-1.63864e-06
0.000232968
-9.57527e-06
0.00024868
1.26739e-06
0.000241973
2.76069e-06
0.000213496
1.78148e-06
0.000217664
-3.88998e-06
0.000271617
-1.1186e-06
0.000298243
3.57866e-06
0.000300686
9.35737e-07
0.000318668
-2.69132e-07
0.000333257
-4.48875e-07
0.000343366
-1.13792e-06
0.00035838
-1.01975e-06
0.000376778
-5.7082e-07
0.000396757
-6.71815e-07
0.000414513
-1.37968e-06
0.000436305
-5.44088e-07
0.000456521
9.00755e-07
0.000477611
1.17618e-07
0.000500772
-7.61417e-07
0.000524055
-6.58364e-07
0.000549965
-7.53e-07
0.000576809
-6.57159e-07
0.000602445
-1.92982e-07
0.000629884
-1.60822e-07
0.000663536
-9.66681e-08
0.000695304
1.72215e-07
0.000726753
1.19022e-07
0.000763959
1.66956e-07
0.000800477
-1.26378e-07
0.000842011
-2.75963e-08
0.000879398
8.55466e-08
0.000878499
8.38918e-08
0.000839067
1.93307e-07
0.000800133
8.05587e-09
0.000765684
3.95605e-08
0.000729075
4.32352e-07
0.000692914
6.04902e-07
0.000661345
7.15241e-07
0.000631891
7.5834e-07
0.00060594
6.1425e-07
0.000578099
4.99949e-07
0.000551029
-8.76938e-07
0.000526304
-1.94321e-06
0.000501864
-2.33774e-07
0.000475925
9.1627e-07
0.000454757
1.02788e-06
0.000429146
5.01463e-07
0.000415284
8.23129e-07
0.000398133
2.47127e-06
0.000369609
1.71641e-06
0.000359823
1.31452e-06
0.000344729
1.12011e-06
0.000332348
-9.90794e-07
0.000319407
3.24828e-07
0.000300217
1.5309e-06
0.000296496
-1.9809e-06
0.000273481
-2.34925e-06
0.00022118
-9.65647e-07
0.000213638
7.56047e-06
0.000241803
-1.26585e-07
0.00024842
-1.06446e-05
0.000225417
8.98253e-06
0.000213775
6.21051e-06
0.000213954
-8.15468e-06
0.000203341
-6.68118e-06
0.00018537
8.12881e-07
9.44237e-05
-8.95495e-07
9.33523e-05
-1.43486e-05
0.000181846
-6.58029e-06
0.000202914
1.02182e-05
0.000174545
8.52228e-06
0.000196213
3.02863e-06
0.000114891
7.83125e-07
1.92395e-05
-5.31823e-06
0.000114436
-8.71344e-09
0.00016751
1.95751e-06
2.72034e-05
-5.95382e-06
0.000108478
-3.50873e-06
0.000154838
-8.55925e-07
0.000107498
8.33717e-05
-2.59416e-06
5.11597e-05
-1.26864e-06
0.000125047
7.50787e-08
0.000145855
2.80447e-06
0.000113392
-6.20503e-07
2.23999e-05
-3.46035e-06
0.000180387
2.5563e-06
0.000121255
-1.72717e-06
2.33996e-05
-8.96097e-06
0.000105629
-1.13378e-05
0.000197533
-8.41585e-06
0.000167441
-4.60708e-06
0.000194854
3.53616e-06
0.00017762
-5.34315e-06
0.000109024
-2.13295e-05
0.000114916
-2.52478e-05
0.000189285
-2.1495e-05
0.000201831
-1.47889e-05
0.000204956
-1.27264e-05
0.000211095
-2.85402e-06
0.000222878
5.00679e-06
0.000240591
2.16346e-06
0.000244576
-3.7711e-06
0.000219181
-1.12013e-05
0.000224833
-7.25479e-06
0.000267398
-5.54639e-06
0.000296245
-6.45983e-06
0.000301296
-2.74278e-06
0.000314633
-1.63387e-06
0.000331814
-1.78024e-06
0.000343163
-9.31347e-07
0.000357163
-1.06988e-06
0.000376533
-1.03099e-06
0.000396315
-3.08369e-07
0.000413369
-3.27148e-07
0.000435881
-6.69209e-07
0.000456401
-1.71886e-06
0.000478174
-1.63046e-06
0.000500175
-1.13956e-06
0.00052303
-1.04261e-06
0.000549309
-6.35273e-07
0.000575815
-2.9501e-07
0.000601491
-5.28309e-07
0.000629472
-6.0082e-07
0.000662934
2.28241e-07
0.000693768
3.12731e-07
0.000725928
-7.83919e-08
0.000763572
1.5333e-07
0.000799432
-3.78178e-08
0.000841348
-5.96159e-08
0.000878526
-1.31621e-07
0.000877676
1.89267e-07
0.000837893
4.76738e-07
0.000799033
-4.03291e-07
0.000765788
-3.93435e-07
0.000728326
7.87229e-07
0.000691026
1.20964e-06
0.00066025
1.0511e-06
0.000631407
6.72601e-07
0.000605706
6.50722e-07
0.000577535
2.23583e-07
0.000550899
5.4172e-07
0.000525452
5.00474e-07
0.000501398
6.10637e-07
0.000475329
1.10399e-06
0.000453802
5.75458e-07
0.000429233
1.83144e-06
0.000413607
1.75456e-06
0.000397806
3.79388e-07
0.000370601
1.79389e-06
0.000358042
2.40071e-06
0.000343773
2.1037e-06
0.000332311
5.28793e-06
0.000315905
6.2488e-06
0.000298952
8.1058e-06
0.000294349
1.37333e-05
0.000267578
4.85342e-06
0.000229798
-3.88989e-06
0.00022213
-3.86936e-06
0.000241543
4.70287e-06
0.000239619
1.2383e-05
0.000217519
1.38521e-05
0.000212098
2.21073e-05
0.000205502
2.6886e-05
0.00019837
2.21018e-05
0.000189973
4.68026e-06
0.000111673
-2.85908e-06
0.000100722
5.86731e-06
0.000172963
8.56232e-06
0.000200068
1.2103e-05
0.00017086
1.17387e-05
0.000196437
3.84377e-06
0.000122652
-1.6842e-06
2.46437e-05
4.32999e-06
0.000108301
2.5256e-06
0.000169195
-1.67773e-06
3.12999e-05
-3.19502e-06
0.000109891
-3.96238e-06
0.000155507
-2.37242e-06
0.000105813
8.09092e-05
6.85513e-07
5.03835e-05
5.12484e-06
0.000120515
9.11073e-06
0.000141772
2.25439e-06
0.000120144
1.15015e-06
2.33898e-05
7.54487e-07
0.000180663
-2.71204e-06
0.000124601
-3.10695e-06
2.3669e-05
-4.37536e-06
0.000106762
-3.91103e-06
0.000196928
-4.00841e-07
0.000163787
2.3989e-06
0.000191902
5.94496e-06
0.000173916
5.89758e-06
0.0001089
5.53871e-06
0.000115102
9.80343e-07
0.00019366
-4.30008e-06
0.000206917
-4.3476e-06
0.000204803
1.01032e-06
0.000205528
-1.16817e-06
0.000224837
-1.36094e-06
0.000240553
4.51559e-07
0.000242522
3.26212e-07
0.000219056
1.36278e-07
0.000224759
-2.20573e-06
0.000269462
-8.05763e-07
0.000294553
-1.39065e-06
0.000301575
-2.18097e-06
0.000315102
-6.05334e-07
0.000329903
-1.03898e-06
0.000343243
-1.17367e-06
0.00035693
-6.5465e-07
0.000375626
-1.45181e-07
0.000395401
-4.29422e-07
0.000413227
-1.25397e-06
0.000436261
-1.56739e-06
0.000456246
-9.99824e-07
0.000477118
-5.1972e-07
0.000499182
-6.00585e-07
0.000522575
-8.00021e-07
0.000548945
-8.32992e-07
0.000575259
-8.70278e-07
0.000600909
-6.13853e-10
0.000627956
2.49143e-07
0.000662004
-1.77643e-07
0.000693483
6.52753e-08
0.000724938
1.28593e-07
0.000762728
1.72418e-08
0.000798723
-1.52193e-07
0.000840659
-8.40561e-08
0.000877557
-1.07869e-08
0.000876703
1.63426e-07
0.00083686
2.33317e-07
0.000798143
7.67194e-08
0.000765163
3.86382e-08
0.000727618
4.88351e-08
0.000690305
8.97495e-07
0.000658722
1.17996e-06
0.000630477
1.35365e-07
0.000606132
6.56526e-08
0.000577015
3.61749e-07
0.000550039
1.61682e-08
0.000525262
5.92213e-07
0.000500308
1.67624e-06
0.000473758
6.69145e-07
0.000454342
5.70796e-08
0.000429401
4.38148e-07
0.000412801
1.2044e-06
0.000396635
2.17056e-06
0.000369247
1.69333e-06
0.00035815
1.56091e-06
0.000343552
2.67936e-06
0.000330857
2.01002e-06
0.000316254
1.13905e-06
0.000299519
2.24618e-06
0.00029295
7.4569e-07
0.0002688
-4.88267e-07
0.000230767
-1.89342e-06
0.000223284
9.07479e-07
0.000238499
2.57348e-06
0.000237722
-2.22997e-07
0.000220096
4.76584e-06
0.0002069
4.66183e-06
0.000205404
2.34376e-07
0.000202604
-4.03895e-06
0.000194063
-3.90912e-06
0.000111365
-2.96073e-06
9.96098e-05
-1.54859e-06
0.000171393
8.7474e-07
0.000197492
5.788e-06
0.000165802
6.82201e-06
0.000195261
3.86927e-06
0.000125474
3.95157e-06
2.44279e-05
8.84799e-08
0.000112044
3.72691e-07
0.000168792
1.12541e-06
3.04312e-05
-5.02846e-06
0.00011594
-9.73395e-07
0.000151354
3.85262e-06
0.000100892
8.46694e-05
5.43746e-06
4.48548e-05
1.36644e-06
0.000124493
8.05579e-07
0.000142236
2.74114e-06
0.000118103
-1.59935e-06
2.76213e-05
-3.99995e-06
0.000182944
3.88667e-07
0.000120091
1.60202e-07
2.37636e-05
-2.36098e-06
0.000109151
-8.88294e-06
0.000203308
-8.71397e-06
0.000163473
-8.64538e-06
0.00019168
-5.53607e-06
0.000170647
-6.66356e-06
0.000109862
-1.36467e-05
0.000121905
-1.87853e-05
0.000198614
-1.73958e-05
0.000205333
-1.30393e-05
0.000200246
-1.10622e-05
0.00020334
-2.89822e-06
0.000216453
3.73545e-06
0.000233689
4.40195e-06
0.000241611
-3.43303e-06
0.000226637
-1.28665e-05
0.000233928
-6.90372e-06
0.000263221
-4.24461e-06
0.0002916
-6.69279e-06
0.000303717
-3.42459e-06
0.000311511
-3.50109e-07
0.000326492
4.00016e-07
0.000342138
-3.75444e-07
0.000357335
3.27171e-07
0.000374534
-1.10289e-06
0.000396424
-3.05419e-06
0.000414751
-3.84206e-07
0.000433144
6.2585e-07
0.000454766
-1.04108e-06
0.000478294
-4.85703e-07
0.00049811
-7.82922e-07
0.000522333
-4.39764e-07
0.000548034
2.21069e-07
0.000574006
-1.73689e-07
0.00060068
-2.19325e-07
0.000627351
-4.01019e-07
0.000661501
-5.84942e-07
0.000692953
-7.36222e-07
0.000724337
-3.98971e-07
0.000761606
-1.33655e-07
0.000797631
8.67919e-08
0.000839577
4.21228e-07
0.000876315
2.22501e-08
0.000876199
1.33107e-07
0.000835884
2.90428e-07
0.000797164
7.70321e-07
0.000763895
8.29245e-07
0.000726811
5.51932e-07
0.000689866
-4.21016e-07
0.000659014
-1.04687e-06
0.000630451
9.10495e-07
0.000603554
1.71649e-06
0.000575616
1.68421e-07
0.000551022
7.51064e-07
0.000524139
5.33139e-07
0.000500012
-1.3465e-06
0.000475146
-4.9301e-07
0.00045302
2.05206e-06
0.000426409
1.28491e-06
0.000413141
6.81893e-07
0.000396831
1.14151e-06
0.000368398
3.96695e-07
0.000358525
1.51429e-06
0.000342081
3.65365e-06
0.000328381
6.00991e-06
0.000313575
4.54103e-06
0.000300681
7.69576e-06
0.000289502
1.24362e-05
0.00026378
3.08369e-06
0.000239853
-5.20588e-07
0.000226632
1.64684e-06
0.000236088
3.3028e-06
0.000235834
6.762e-06
0.000216415
8.43745e-06
0.000205013
1.73817e-05
0.000196259
2.11893e-05
0.000198602
1.57264e-05
0.000199342
7.31932e-06
0.000119597
5.68797e-06
0.000101068
9.39672e-06
0.000167524
7.73627e-06
0.000198999
8.0016e-06
0.000165389
5.76699e-06
0.000197353
5.21647e-06
0.000125888
1.17204e-06
2.83461e-05
1.89019e-06
0.000111203
1.04481e-06
0.000169519
-1.06579e-06
3.24328e-05
-1.32219e-06
0.00011609
-6.27089e-06
0.000156203
-7.82091e-06
0.000102345
7.67568e-05
-1.57341e-06
4.63358e-05
-2.63653e-06
0.000125461
-3.94369e-06
0.000143444
-4.92046e-07
0.000114545
2.13183e-06
2.48809e-05
1.17046e-06
0.000183784
-6.48788e-07
0.000121787
-2.43654e-06
2.54237e-05
-4.81751e-06
0.000111395
-7.99498e-06
0.000206343
-6.84814e-06
0.000162179
1.68864e-06
0.000182988
5.08004e-06
0.000167094
2.6846e-06
0.000112083
3.04489e-06
0.000121369
5.70053e-07
0.000200902
-4.5156e-06
0.000210223
-4.10118e-06
0.000199628
-1.28449e-06
0.000200312
-2.97389e-06
0.00021792
-9.05084e-07
0.000231386
-5.41914e-07
0.000241002
-9.50726e-07
0.000226791
-1.61579e-07
0.00023287
-3.11419e-06
0.000265892
-3.42122e-06
0.000291611
2.08796e-07
0.000299776
2.44099e-07
0.000311152
-2.27121e-06
0.000328666
-2.01468e-06
0.000341526
-1.78195e-06
0.000356728
-3.16495e-06
0.000375527
-8.8414e-07
0.000393732
1.36545e-06
0.000412072
-1.11129e-06
0.000435169
-1.1109e-06
0.000454295
-4.79865e-07
0.000477167
-1.66038e-06
0.000498773
-1.19277e-06
0.00052132
-1.38646e-06
0.00054766
-9.78332e-07
0.000572999
3.5062e-07
0.000598727
-3.95595e-07
0.000627439
-8.12998e-07
0.000661233
6.76732e-07
0.00069074
1.24508e-06
0.000723015
-1.37793e-07
0.000762195
6.49923e-09
0.00079666
-2.74306e-07
0.000838986
-4.42655e-07
0.000875575
1.20175e-08
0.000874831
5.90018e-08
0.00083497
2.62845e-07
0.000796129
-9.54551e-07
0.000764324
-8.02069e-07
0.000725901
9.37493e-07
0.000687408
1.6517e-06
0.000657611
2.02843e-06
0.00062942
7.43661e-07
0.000604212
-2.39036e-08
0.000575787
2.33589e-07
0.000550194
-7.98531e-07
0.000524628
-1.33971e-06
0.000500034
1.03457e-06
0.000472277
2.1597e-06
0.000451423
8.19346e-07
0.000427299
2.05224e-06
0.000411478
2.58965e-06
0.000395883
2.18736e-06
0.00036841
2.83865e-06
0.0003575
2.4458e-06
0.000342117
-6.43377e-07
0.000331129
-8.49086e-07
0.000313457
2.88325e-06
0.000296639
2.59166e-06
0.000289497
1.95008e-06
0.00026414
1.08656e-06
0.000240447
-1.76272e-06
0.000229226
1.68876e-06
0.00023239
4.46884e-06
0.000232819
-6.41496e-08
0.000220725
1.34528e-06
0.000203391
5.25485e-06
0.000192144
3.59138e-06
0.000200069
-7.06004e-08
0.000202817
-8.69598e-07
0.000120215
-3.18862e-06
0.000103221
-3.09357e-06
0.000167268
3.8904e-06
0.00019186
8.25257e-06
0.00016088
4.88755e-06
0.000200574
1.87564e-06
0.000128766
6.82444e-07
2.94034e-05
-2.36351e-06
0.000114126
-1.0621e-06
0.000168098
5.77364e-07
3.0675e-05
2.05136e-06
0.000114509
2.97019e-06
0.000155183
-2.62714e-06
0.000107845
7.40353e-05
-3.06643e-06
4.93091e-05
1.38059e-06
0.000120919
-2.49217e-06
0.000147218
-2.58969e-06
0.000114535
-8.14119e-07