/*--------------------------------*- C++ -*----------------------------------*\
| =========                 |                                                 |
| \\      /  F ield         | OpenFOAM: The Open Source CFD Toolbox           |
|  \\    /   O peration     | Version:  2312                                  |
|   \\  /    A nd           | Website:  www.openfoam.com                      |
|    \\/     M anipulation  |                                                 |
\*---------------------------------------------------------------------------*/
FoamFile
{
    version     2.0;
    format      ascii;
    arch        "LSB;label=32;scalar=64";
    class       surfaceScalarField;
    location    "1";
    object      phi.water;
}
// * * * * * * * * * * * * * * * * * * * * * * * * * * * * * * * * * * * * * //

dimensions      [0 3 -1 0 0 0 0];

oriented        oriented;

internalField   nonuniform List<scalar> 
99400
(
1.13336e-05
-1.9677e-05
-5.32915e-06
9.2667e-06
-2.03731e-05
6.26893e-06
-1.37777e-05
-1.58721e-05
1.07523e-05
-3.40068e-05
-2.54379e-05
2.66469e-05
-2.19932e-05
-1.47555e-05
2.92848e-05
-6.13619e-05
6.11787e-05
-4.35554e-05
3.46682e-05
1.33581e-05
4.43858e-06
1.64169e-05
-2.60234e-05
1.83379e-05
-3.16712e-05
-9.14404e-06
1.69349e-05
-6.28784e-05
5.89201e-05
-5.72492e-05
4.78476e-05
-5.50672e-06
2.14066e-05
1.04464e-05
9.55098e-06
-4.7903e-06
1.08013e-05
-1.90182e-05
3.88279e-06
-1.18493e-05
-1.09225e-05
-3.42013e-06
-2.15504e-05
-8.59192e-06
-8.05907e-06
-3.5202e-05
1.8055e-05
-4.9207e-05
1.76066e-05
-2.30948e-05
7.81395e-06
-1.43499e-05
3.61031e-06
-2.13324e-05
2.12274e-06
-2.5666e-05
-1.44939e-07
-2.603e-05
-1.73905e-06
-2.80813e-05
-5.89851e-08
-3.28148e-05
8.36257e-07
-3.35106e-05
-3.47927e-07
-3.29636e-05
-7.13003e-07
-3.53582e-05
-1.47678e-07
-3.80513e-05
-4.27807e-07
-3.89632e-05
-1.49308e-06
-4.00672e-05
-1.62843e-06
-4.2967e-05
-4.53347e-07
-4.64267e-05
-3.67893e-07
-4.74702e-05
-8.77569e-07
-4.9137e-05
-7.02366e-07
-5.21744e-05
-2.42913e-07
-5.49557e-05
-1.92499e-07
-5.72008e-05
-1.86504e-07
-5.98952e-05
1.18274e-07
-6.3055e-05
1.09565e-07
-6.57802e-05
1.51827e-07
-6.90324e-05
-7.08804e-08
-7.21229e-05
-3.04801e-08
-7.58312e-05
1.04698e-07
-7.58737e-05
1.25748e-07
-7.22892e-05
2.28312e-07
-6.90591e-05
1.3922e-07
-6.57264e-05
1.45398e-07
-6.28109e-05
4.31557e-07
-6.0139e-05
6.3974e-07
-5.73365e-05
7.33231e-07
-5.45885e-05
5.74113e-07
-5.19104e-05
1.95971e-07
-4.92837e-05
1.56799e-07
-4.73323e-05
6.57853e-07
-4.57053e-05
4.48115e-07
-4.29051e-05
-1.04986e-06
-3.96439e-05
-1.25153e-06
-3.90426e-05
1.76955e-06
-4.05743e-05
7.87317e-07
-3.47578e-05
-8.65186e-07
-3.25073e-05
1.87312e-06
-3.53797e-05
2.7416e-06
-3.19744e-05
7.78597e-07
-2.77105e-05
-1.19871e-06
-2.63295e-05
-2.84209e-06
-2.54481e-05
-5.63722e-06
-2.29081e-05
-1.39025e-05
-1.59988e-05
-1.75897e-05
-1.98494e-05
5.5266e-06
-4.6049e-05
2.16531e-05
-3.79026e-05
1.28998e-05
-1.09538e-05
-1.65393e-06
-3.69752e-06
-9.90581e-06
-1.04601e-05
-9.59384e-06
-1.79797e-05
-2.03718e-05
-6.05672e-06
-4.54488e-05
9.35321e-06
-5.77186e-05
-4.27869e-06
-1.77551e-05
-5.51747e-05
3.27574e-05
-6.46632e-05
3.32997e-05
-1.5095e-05
1.42493e-06
1.78981e-05
-2.85209e-05
1.63587e-05
-6.13565e-05
1.97673e-05
-3.24503e-05
-4.07146e-05
2.56936e-05
-6.7787e-05
2.69607e-05
-1.258e-05
-8.4347e-06
2.55437e-05
2.6717e-05
-4.38473e-05
3.84599e-05
-2.07427e-05
1.99225e-05
8.98564e-06
6.61433e-06
5.12635e-06
-1.60825e-06
3.25925e-05
-4.3401e-05
-6.69296e-06
5.6909e-05
-6.19676e-05
6.86323e-05
-2.87133e-05
-3.97727e-05
-4.90635e-06
-4.82888e-05
-6.59198e-05
9.55519e-05
-4.70227e-05
-2.28659e-05
1.15846e-05
-0.000107023
6.69614e-05
-8.49781e-05
8.85219e-05
2.94006e-06
-3.14122e-06
0.000118205
-8.95153e-05
0.000113757
-5.9183e-05
-2.54948e-05
-2.14334e-06
-0.000102869
5.81202e-05
-9.92635e-05
6.25521e-05
7.45718e-06
-1.31626e-05
0.000100193
-2.75003e-05
3.11264e-05
-5.14088e-07
-2.53355e-05
1.2005e-05
-1.12855e-06
-7.83664e-06
3.95419e-05
-3.37272e-05
4.32767e-05
-1.59315e-05
-2.58122e-05
1.19028e-05
-4.83352e-05
2.04821e-05
-1.79557e-06
4.06117e-06
3.36148e-05
-7.42826e-06
2.33217e-05
-1.48907e-06
2.54534e-06
-1.29375e-06
9.17179e-06
-4.37575e-06
1.27208e-05
-8.20281e-07
2.90682e-06
1.60427e-06
5.20367e-06
-8.86781e-07
1.29629e-05
-1.53286e-06
9.98923e-06
1.07983e-06
6.2055e-06
9.92285e-07
1.01924e-05
-2.8183e-06
1.55384e-05
-3.00134e-06
1.10753e-05
-5.40167e-07
8.01885e-06
-4.34658e-07
1.21405e-05
-1.11203e-06
1.37092e-05
-8.05378e-07
1.26695e-05
-1.95473e-07
1.27957e-05
-2.48317e-07
1.44923e-05
-2.31076e-07
1.50669e-05
8.65e-08
1.54439e-05
1.81683e-07
1.64934e-05
3.38211e-07
1.76275e-05
-1.37092e-07
1.93498e-05
-1.37972e-07
1.95563e-05
1.30106e-07
1.87258e-05
2.16247e-07
1.81436e-05
3.1015e-07
1.7175e-05
5.87615e-08
1.71769e-05
6.41266e-08
1.59873e-05
4.04038e-07
1.45746e-05
7.56159e-07
1.38586e-05
1.09116e-06
1.33407e-05
7.71015e-07
1.38415e-05
1.72535e-08
1.39521e-05
-2.84133e-08
1.19506e-05
1.92549e-06
8.97526e-06
1.59835e-06
1.13042e-05
-2.27063e-06
1.60266e-05
-1.96489e-06
9.63328e-06
2.37789e-06
2.17831e-06
1.70909e-06
1.05418e-05
-1.26577e-06
1.40806e-05
2.36027e-06
2.13134e-06
5.80816e-06
3.58497e-06
1.98988e-06
1.3931e-05
-2.49841e-07
1.20816e-05
5.4153e-06
2.32585e-06
-1.1738e-06
1.66684e-05
-1.62646e-05
3.09571e-05
-1.05661e-05
3.37385e-06
1.29887e-05
-4.09318e-05
3.12427e-05
-2.8725e-05
1.2764e-05
3.39599e-05
-7.56869e-06
3.97443e-05
8.19974e-07
4.42768e-06
2.6187e-05
-2.25624e-05
1.79832e-05
2.32719e-05
-5.59897e-05
9.74925e-05
-5.71111e-05
1.42085e-05
3.24764e-06
-9.88765e-05
6.00054e-05
-0.000104688
9.24106e-05
-3.40116e-05
1.53477e-05
0.000106105
-7.39699e-05
0.000117077
-6.61074e-05
2.33534e-05
-1.56095e-05
-7.77429e-05
4.63976e-05
-0.000116932
6.37714e-05
-1.89516e-05
1.40333e-06
9.69417e-05
3.30275e-05
-6.61383e-05
6.41767e-05
-4.21578e-05
9.54125e-06
7.1581e-05
-1.25465e-05
3.56542e-05
-5.18919e-06
-2.48799e-05
-1.64791e-05
-1.28503e-05
4.04994e-05
-1.18362e-05
6.403e-05
-2.97305e-05
-1.98722e-05
-1.81436e-05
-6.27285e-05
-2.24682e-06
7.70641e-05
-3.0261e-06
-2.06053e-05
1.32977e-06
-0.000109967
-7.32388e-06
-7.57534e-05
-1.13352e-05
6.97754e-06
-5.51179e-06
0.000108473
3.32153e-06
0.000101194
6.64617e-07
-2.16416e-05
-1.36616e-05
-8.94444e-05
-2.09335e-05
-8.93236e-05
-2.4436e-05
9.30007e-06
5.848e-06
6.39897e-05
9.8244e-06
2.02126e-05
-1.88856e-05
-3.61023e-06
-2.12888e-05
-3.69903e-06
-9.1625e-06
1.88816e-05
-1.0257e-06
2.59919e-05
1.08314e-06
-3.199e-05
-1.89654e-06
-4.85455e-05
-4.38358e-06
-5.29595e-06
-2.09149e-07
1.93922e-05
3.66822e-06
1.0137e-05
-2.96635e-07
-1.59387e-06
-8.27069e-07
2.17356e-07
1.51317e-06
1.07801e-06
-2.44687e-07
-4.9203e-06
-1.89846e-06
-2.9923e-06
-5.4359e-07
7.4454e-07
2.06258e-07
-2.13845e-06
-1.7124e-06
-3.47466e-06
-2.04903e-06
-2.05542e-06
-3.34734e-07
3.67992e-07
-1.22573e-07
-2.85205e-06
-1.10342e-06
-4.9828e-06
-1.15034e-06
-2.67842e-06
-8.48099e-07
-2.28721e-06
-6.89296e-07
-4.09185e-06
-2.78469e-07
-5.08536e-06
-2.44973e-07
-3.49146e-06
-2.09634e-07
-3.87938e-06
1.36289e-07
-4.87458e-06
1.59219e-07
-4.33708e-06
1.60324e-07
-4.02685e-06
-9.71339e-08
-3.06142e-06
-4.66878e-08
-4.29901e-06
1.17851e-07
-5.48747e-06
1.58573e-07
-4.74797e-06
2.72674e-07
-4.73473e-06
1.07562e-07
-3.33258e-06
5.49104e-08
-3.63548e-06
4.19085e-07
-5.03508e-06
7.07227e-07
-4.64747e-06
8.06497e-07
-4.16977e-06
5.52713e-07
-2.16801e-06
6.46743e-07
-1.85011e-06
4.90345e-07
-2.78153e-06
-4.40417e-07
-4.14292e-06
-2.77411e-07
-2.40631e-06
1.54225e-06
6.75945e-07
1.26092e-06
-2.53038e-06
-6.20259e-08
-8.38533e-06
7.04362e-07
-1.51986e-06
2.20115e-06
1.64941e-06
1.02972e-06
-6.76232e-06
-1.30356e-06
-3.65381e-06
1.04611e-06
2.24724e-06
1.54495e-06
2.08554e-06
-2.8345e-06
-1.78729e-06
6.78094e-07
5.17611e-06
5.61787e-06
1.67991e-05
1.78106e-06
9.2269e-08
3.54866e-07
-4.34956e-05
3.23246e-06
-3.55386e-05
8.88512e-06
1.99542e-05
1.93762e-05
2.07924e-05
2.04102e-05
-1.83e-06
-7.58172e-06
-2.15637e-06
-5.83811e-06
1.4618e-05
2.43427e-05
6.11669e-05
2.22501e-05
1.42406e-05
1.72893e-05
-9.10013e-05
3.5863e-06
-9.11633e-05
-1.08291e-06
-2.81399e-05
8.77767e-06
9.44575e-05
1.02409e-05
0.00011043
1.00282e-05
2.30123e-05
2.1169e-06
-6.85546e-05
-1.36612e-06
-0.000114573
6.89138e-07
-1.97793e-05
1.64248e-05
7.85173e-05
1.40041e-05
-6.89007e-05
-1.51502e-05
-1.08767e-05
-2.02035e-05
7.35099e-05
-1.66133e-06
1.45154e-05
-7.70092e-06
-2.13711e-05
4.37846e-06
2.27421e-06
1.79406e-05
1.15118e-05
5.53249e-05
-5.50025e-06
-6.66615e-07
8.51348e-06
-7.6978e-05
2.82143e-05
5.87705e-05
1.74041e-05
-9.32039e-06
1.80459e-05
-0.000113315
1.5145e-05
-7.34526e-05
-1.57715e-05
4.21043e-05
-3.36739e-06
9.82517e-05
6.89428e-06
9.4937e-05
-1.19789e-05
2.62795e-08
-6.04178e-06
-9.55096e-05
-1.52935e-05
-8.15165e-05
-2.24917e-05
2.18024e-05
5.28547e-05
-7.50768e-06
6.79205e-05
8.91714e-06
-9.1371e-06
8.51524e-05
-2.71586e-05
2.14745e-05
-8.27106e-07
-2.42529e-06
-5.72095e-06
3.88141e-05
-4.85389e-06
-2.59434e-05
7.54347e-06
-5.56212e-05
5.7501e-06
6.69536e-06
2.97479e-06
3.01787e-05
4.80655e-06
1.571e-05
6.68432e-07
1.16432e-05
-2.26462e-06
1.34564e-05
-1.66036e-07
8.4997e-06
2.81601e-07
4.66344e-06
-8.30293e-07
9.07486e-06
-3.67009e-07
1.12354e-05
7.63355e-07
1.01e-05
-3.0404e-07
1.08409e-05
-2.00872e-06
1.47159e-05
-1.48984e-06
1.40774e-05
-9.72468e-07
1.2691e-05
-7.68221e-07
1.06839e-05
-7.83449e-07
1.43338e-05
-8.85266e-07
1.59185e-05
-5.93144e-07
1.51818e-05
-2.03518e-07
1.48247e-05
-2.0804e-07
1.75881e-05
-1.52141e-07
1.81681e-05
1.08428e-07
1.8208e-05
1.44207e-07
2.0012e-05
2.58226e-07
2.07669e-05
-8.45416e-08
2.32971e-05
-4.10058e-08
2.30078e-05
1.31132e-07
2.26431e-05
1.43976e-07
2.1992e-05
2.39639e-07
2.08339e-05
9.14215e-08
2.07386e-05
9.48338e-08
1.93001e-05
4.33421e-07
1.68417e-05
6.88738e-07
1.66239e-05
7.736e-07
1.58118e-05
6.63845e-07
1.69331e-05
4.6021e-07
1.58565e-05
2.35278e-07
1.52148e-05
-9.4682e-08
1.22439e-05
3.79131e-07
1.31907e-05
7.35944e-07
1.43946e-05
-3.55239e-07
1.32033e-05
3.30785e-07
3.25791e-06
6.30198e-07
1.11545e-05
6.05617e-07
1.26776e-05
1.23248e-06
3.94491e-06
1.10594e-06
7.11377e-06
2.94404e-06
9.83188e-06
6.16437e-08
1.42891e-05
-4.76959e-06
1.33067e-05
-7.99485e-07
1.09856e-05
-2.20271e-06
2.76046e-05
-7.56093e-06
1.44794e-05
4.18372e-06
-4.9689e-05
7.84817e-06
-3.36381e-05
1.5248e-06
3.4411e-05
2.64319e-05
9.36281e-07
1.08281e-05
2.08684e-05
-6.76253e-05
8.83154e-05
-5.6039e-05
8.04203e-06
2.05746e-05
-1.17031e-05
1.63199e-05
2.36692e-05
7.83361e-06
-8.13253e-05
1.14601e-05
-9.65002e-05
-9.46511e-07
-1.24253e-05
6.77945e-06
8.80733e-05
1.45361e-05
0.00010195
-1.08623e-05
5.18904e-05
-1.59565e-05
-6.4886e-05
-1.29583e-05
-0.00011842
-2.2191e-05
-9.7325e-06
8.87273e-07
5.60772e-05
1.61574e-05
-8.35881e-05
-3.43685e-06
1.05306e-05
2.68349e-05
4.44801e-05
5.68264e-05
-1.41681e-05
5.05271e-05
1.74217e-05
-1.5025e-05
1.97845e-05
1.35143e-05
2.22132e-05
5.16556e-05
1.47623e-05
5.31576e-06
1.34571e-05
-7.91377e-05
9.08568e-06
6.14827e-05
5.13779e-06
-8.32385e-06
1.15674e-06
-0.000112606
-1.926e-05
-5.61397e-05
-2.23397e-05
4.22314e-05
-8.20653e-06
8.10941e-05
4.65127e-06
7.91076e-05
2.61554e-06
-1.9847e-06
-1.72712e-05
-8.08316e-05
-2.91215e-05
-7.4376e-05
-2.6549e-05
1.29674e-05
-4.1938e-05
5.38488e-06
-3.5495e-05
-4.90037e-06
-8.66264e-07
4.17032e-05
5.49185e-06
4.58776e-06
-3.3582e-06
-2.26253e-06
3.04302e-06
2.26925e-05
1.17193e-06
-3.43652e-05
-1.15614e-05
-5.25121e-05
-7.72535e-06
-1.05119e-05
-3.61647e-06
1.23725e-05
-3.6992e-06
9.36944e-07
-1.93613e-06
-6.9659e-06
-6.22464e-07
-5.27443e-06
-5.56524e-07
-1.0196e-05
-1.36188e-06
-1.34794e-05
-1.03943e-06
-1.19479e-05
-9.24563e-07
-9.96218e-06
-1.21664e-06
-1.25088e-05
-1.12475e-06
-1.23232e-05
-4.07483e-07
-1.12249e-05
-4.06703e-07
-1.08234e-05
-5.15507e-07
-1.48485e-05
-1.11557e-06
-1.66184e-05
-1.15429e-06
-1.55465e-05
-8.09511e-07
-1.54784e-05
-6.89714e-07
-1.78683e-05
-3.2116e-07
-1.98021e-05
-2.30705e-07
-1.85597e-05
-1.78708e-07
-1.95306e-05
1.35201e-07
-2.17305e-05
2.05864e-07
-2.14273e-05
1.95353e-07
-2.2707e-05
-1.57525e-07
-2.17467e-05
-9.68536e-08
-2.48444e-05
1.12672e-07
-2.52469e-05
2.17457e-07
-2.36415e-05
3.30754e-07
-2.27006e-05
4.95783e-08
-2.0209e-05
3.04776e-08
-2.03528e-05
3.72505e-07
-2.12022e-05
7.6899e-07
-2.01181e-05
1.04467e-06
-1.8691e-05
5.96768e-07
-1.56956e-05
4.85819e-07
-1.49025e-05
3.33403e-07
-1.48697e-05
-1.61054e-08
-1.53767e-05
-2.50832e-07
-1.41832e-05
6.43322e-07
-1.12701e-05
1.29838e-06
-1.26033e-05
6.49305e-07
-1.8431e-05
1.1825e-06
-1.2088e-05
1.54506e-06
-8.64555e-06
1.34605e-06
-1.66255e-05
1.00989e-06
-1.16909e-05
1.05122e-06
-8.69868e-06
2.13651e-06
-4.23981e-06
4.17672e-06
-5.58595e-06
3.42135e-06
-3.92363e-06
7.07383e-06
1.02219e-05
1.35195e-05
-5.57536e-06
2.10035e-06
-4.85834e-05
-3.30513e-06
-3.83912e-05
2.55657e-06
1.80899e-05
-4.64191e-06
-6.69001e-07
1.98135e-06
3.68823e-06
3.75708e-05
4.38256e-05
4.51488e-05
-7.21404e-06
2.87789e-05
2.20331e-06
2.987e-05
1.63607e-05
1.92467e-05
-7.67214e-05
4.38329e-06
-8.55296e-05
-5.56745e-07
-1.09978e-05
8.60549e-06
7.60519e-05
2.34498e-05
8.44687e-05
2.33017e-05
4.94346e-05
9.71001e-07
-4.46786e-05
-9.1155e-06
-0.000112951
-7.59038e-06
-1.39877e-05
-7.8712e-06
5.42628e-05
-1.57919e-05
-7.91768e-05
-1.35409e-05
6.67347e-06
-1.43988e-05
4.33556e-05
-1.71727e-05
-1.29122e-05
2.98303e-05
1.95224e-05
-3.3917e-05
5.90134e-06
2.74469e-05
5.93848e-06
5.24953e-05
2.83391e-06
9.05373e-06
1.00693e-05
-8.60295e-05
1.00501e-05
6.23164e-05
-2.39899e-06
5.17679e-06
-3.19778e-06
-0.000112537
-1.3296e-05
-4.58738e-05
-2.07299e-05
5.13704e-05
1.07687e-05
5.02591e-05
3.02244e-05
6.03014e-05
6.23162e-08
3.20296e-05
-7.15847e-06
-7.33456e-05
-1.00354e-06
-7.93593e-05
1.68975e-05
-1.54765e-06
2.84956e-05
-4.72461e-06
4.3217e-07
3.03408e-05
9.39142e-06
3.55163e-05
6.45031e-06
1.42955e-05
-1.18283e-05
2.36485e-05
-2.7559e-06
1.90718e-05
1.49945e-06
-3.29777e-05
4.6952e-06
-5.07408e-05
1.22367e-06
1.61169e-06
1.98073e-06
2.00839e-05
5.05434e-06
8.80564e-06
6.18073e-07
9.29473e-06
-5.42571e-07
8.7043e-06
6.24286e-07
1.60613e-06
-6.25035e-08
1.59114e-06
-1.0302e-06
3.45051e-06
-6.63324e-07
5.30141e-06
-7.81508e-07
3.23324e-06
-2.07166e-06
6.31179e-06
-2.06209e-06
5.98187e-06
-4.26722e-07
6.5451e-06
-2.96096e-07
4.65478e-06
-7.81999e-07
4.7631e-06
-9.19455e-07
5.92178e-06
-9.18999e-07
7.40193e-06
-5.85075e-07
5.56849e-06
-1.28284e-07
5.26336e-06
-1.528e-07
7.47222e-06
-1.4845e-07
8.02521e-06
1.02873e-07
6.58113e-06
1.4207e-07
8.84107e-06
2.00256e-07
8.85041e-06
-1.14903e-07
1.15348e-05
-3.03523e-08
9.87877e-06
1.46618e-07
9.21237e-06
1.14902e-07
9.67688e-06
1.95204e-07
8.69923e-06
6.07432e-08
1.01087e-05
5.0104e-08
8.28185e-06
4.12121e-07
6.42798e-06
6.76814e-07
5.60213e-06
7.29945e-07
6.8333e-06
6.95197e-07
7.65108e-06
7.08097e-07
8.43639e-06
4.12437e-07
6.83383e-06
-6.40682e-07
7.05097e-06
-5.05178e-07
5.28182e-06
1.00409e-06
6.57874e-06
1.1234e-06
4.84194e-06
1.52229e-06
-1.20524e-06
8.05859e-07
4.58819e-06
8.97669e-07
7.0914e-06
1.40653e-06
-3.04803e-06
7.60704e-08
4.20135e-06
1.66127e-06
2.52756e-06
2.80263e-06
7.35389e-06
-1.78741e-06
1.09181e-05
-2.76078e-06
5.99699e-06
-2.84842e-06
1.69214e-05
-5.13231e-06
8.15647e-06
-9.18117e-07
-4.77099e-05
4.32222e-06
-3.84332e-05
9.15573e-06
1.86894e-05
-8.10591e-06
2.41117e-05
-6.69835e-06
8.9282e-06
3.05423e-06
3.67264e-05
-2.81344e-05
3.15131e-05
-1.84512e-05
-5.91091e-06
2.70831e-06
-1.64395e-06
1.09612e-05
-8.31245e-05
3.1007e-06
-7.79385e-05
-2.76349e-05
2.22323e-05
-1.15016e-05
6.08832e-05
1.83016e-05
5.56684e-05
1.42001e-05
5.47351e-05
3.30497e-06
-3.4009e-05
2.71704e-06
-0.000112308
-6.92591e-06
-3.52135e-06
-4.9141e-06
5.24019e-05
-1.90503e-06
-8.17152e-05
6.42051e-06
-1.07048e-06
-4.33609e-06
5.30029e-05
-3.76728e-05
2.09804e-05
-6.9541e-06
4.16241e-06
-3.88927e-05
-1.48801e-06
3.31657e-05
-2.53509e-06
5.32838e-05
1.54165e-06
3.79025e-06
-1.18208e-07
-8.56497e-05
-7.35935e-07
6.25304e-05
3.16344e-06
-6.70268e-07
-4.68644e-06
-0.000105898
-1.74315e-05
-3.44337e-05
-1.68193e-05
4.98358e-05
-8.31179e-06
4.10085e-05
-3.44346e-06
5.43205e-05
6.38088e-06
1.91217e-05
-5.94378e-06
-6.28646e-05
-2.22876e-05
-6.60805e-05
-3.03516e-05
2.39665e-06
-3.47917e-05
-3.0589e-06
-2.07249e-05
1.1331e-05
-1.27249e-05
2.36136e-05
-4.45678e-06
-1.1458e-06
3.86485e-06
8.87068e-06
5.13862e-06
1.17613e-05
1.079e-07
-3.48087e-05
-1.3263e-05
-4.39188e-05
-1.09356e-05
-1.01831e-05
-6.40158e-06
7.66288e-06
-6.54838e-06
-1.93405e-06
-2.77971e-06
-5.79284e-06
-1.29106e-06
-5.37335e-06
-1.73431e-06
-1.05251e-05
-1.46679e-06
-1.28251e-05
-5.96833e-07
-1.13029e-05
-6.93809e-07
-1.00842e-05
-7.44565e-07
-1.20371e-05
-4.54516e-07
-1.13454e-05
-4.74823e-07
-1.0653e-05
-1.03618e-06
-1.15636e-05
-8.1778e-07
-1.38865e-05
-9.86757e-07
-1.54615e-05
-1.09855e-06
-1.49348e-05
-7.21724e-07
-1.54296e-05
-4.59754e-07
-1.76565e-05
-2.08817e-07
-1.97103e-05
-2.31381e-07
-1.78873e-05
-1.54554e-07
-1.90488e-05
1.27072e-07
-2.16266e-05
1.55055e-07
-2.07465e-05
1.90484e-07
-2.19358e-05
-1.61604e-07
-2.03019e-05
-9.5812e-08
-2.40426e-05
7.53556e-08
-2.48593e-05
2.48568e-07
-2.28818e-05
3.44526e-07
-2.20531e-05
-2.667e-08
-1.9043e-05
9.6621e-09
-1.94187e-05
3.42308e-07
-2.10607e-05
8.03983e-07
-1.98616e-05
1.10886e-06
-1.8245e-05
5.21588e-07
-1.41871e-05
2.48274e-07
-1.37959e-05
1.67563e-07
-1.33681e-05
1.87095e-07
-1.35982e-05
1.14999e-09
-1.26772e-05
7.57831e-07
-1.29242e-05
1.08359e-06
-1.21899e-05
1.57876e-07
-1.74858e-05
1.11428e-06
-1.18056e-05
1.09037e-06
-8.26619e-06
1.34254e-06
-1.64656e-05
2.58242e-06
-1.11352e-05
1.95769e-06
-9.18443e-06
2.14221e-06
-5.24745e-06
6.09677e-06
-4.27884e-06
6.3591e-06
-5.47438e-06
1.01446e-05
4.47095e-06
1.64019e-05
-8.06614e-06
3.19395e-06
-4.14751e-05
-6.45857e-06
-3.55912e-05
-3.15773e-06
8.88113e-06
5.83009e-06
8.65199e-06
1.24548e-05
-4.87973e-06
2.07061e-05
2.45842e-05
3.56687e-05
1.13259e-05
3.21763e-05
-5.12458e-06
2.32932e-05
3.32445e-06
6.48032e-06
-6.95957e-05
-2.90173e-06
-7.03424e-05
5.005e-06
1.12378e-05
7.90618e-06
5.69375e-05
1.781e-05
4.51376e-05
2.00252e-05
5.18794e-05
4.83553e-06
-1.98604e-05
-3.47439e-06
-0.000105664
2.95043e-06
-1.16663e-05
4.31705e-06
5.0467e-05
-1.47291e-06
-7.74548e-05
7.48081e-07
-4.24509e-06
-3.18952e-06
5.65087e-05
7.45953e-07
1.56783e-05
-7.23447e-06
2.57509e-06
-4.01643e-05
3.65387e-06
3.32166e-05
8.05048e-06
4.93063e-05
6.21817e-07
1.23048e-05
2.19824e-06
-8.72016e-05
8.71198e-06
5.66304e-05
-7.05457e-08
9.19983e-06
-3.09418e-06
-0.000103367
-6.63747e-06
-3.07851e-05
-1.01677e-05
5.40377e-05
5.63536e-06
2.58943e-05
1.41997e-05
4.54696e-05
4.75268e-06
3.02787e-05
3.55444e-06
-6.13503e-05
1.04724e-05
-7.14771e-05
1.11309e-05
4.65881e-06
-4.47405e-06
1.54822e-05
-5.24349e-06
1.5321e-05
1.43925e-05
6.20167e-06
-1.45016e-06
1.93376e-05
-1.01006e-05
2.33793e-05
1.38181e-06
2.94397e-06
3.06366e-06
-3.19588e-05
2.34697e-06
-3.93303e-05
-3.72247e-06
2.25643e-06
-1.02536e-06
1.15973e-05
4.04519e-06
1.07628e-06
1.15261e-06
7.00868e-06
-1.96854e-07
5.55032e-06
-4.08436e-07
1.01779e-06
-1.14939e-06
-1.29143e-06
-1.02852e-06
1.2184e-06
-5.60657e-07
1.54167e-06
-6.67978e-07
1.92274e-06
-1.41404e-06
2.49789e-06
-4.97147e-07
3.23173e-06
1.06169e-06
9.39207e-07
1.97119e-07
3.30439e-06
-7.41837e-07
1.16775e-06
-6.21027e-07
3.29891e-06
-7.45967e-07
2.79162e-06
-6.62458e-07
1.86424e-06
-1.87192e-07
-7.57957e-07
-1.54898e-07
3.63973e-06
-9.11634e-08
2.96627e-06
1.72439e-07
1.81209e-06
1.13249e-07
3.48321e-06
1.61202e-07
3.98351e-06
-1.2512e-07
6.61834e-06
-2.28543e-08
4.3365e-06
8.60556e-08
3.36318e-06
7.70255e-08
4.27122e-06
1.87549e-07
3.9383e-06
6.14787e-09
5.55895e-06
3.88911e-08
4.52706e-06
4.38119e-07
9.10834e-07
5.88214e-07
1.87327e-06
6.88699e-07
1.87557e-06
7.67712e-07
5.61847e-06
6.27541e-07
4.29084e-06
5.15911e-07
4.74944e-06
-9.58486e-07
3.99285e-06
-2.11495e-06
4.80036e-06
-3.25736e-07
-2.02309e-07
9.15892e-07
2.07208e-06
1.04924e-06
-4.8006e-06
4.41594e-07
2.94072e-06
7.85295e-07
2.8921e-06
2.53934e-06
-6.19375e-06
1.72471e-06
5.98026e-07
1.26585e-06
2.2302e-06
1.02783e-06
4.75852e-06
-1.3291e-06
7.75588e-06
1.48862e-07
1.76914e-06
1.17667e-06
1.06178e-05
-2.73708e-06
2.68568e-06
-2.78956e-06
-3.73033e-05
-1.07178e-06
-3.28917e-05
7.94115e-06
3.47746e-06
-4.82997e-07
2.21284e-05
-1.20349e-05
1.1382e-05
8.46321e-06
5.91296e-06
5.52018e-06
1.73396e-05
-1.01336e-05
1.32882e-05
-8.22998e-06
4.28847e-06
1.22254e-07
-7.64049e-05
-1.71285e-06
-6.82334e-05
-1.54129e-05
2.68503e-05
-7.43343e-06
4.94027e-05
9.76705e-06
2.84634e-05
8.37288e-06
5.37932e-05
3.32459e-06
-1.47923e-05
7.39331e-07
-0.000103122
-5.6034e-06
-4.44542e-06
-1.44898e-07
4.5678e-05
1.77024e-06
-7.92141e-05
-6.80509e-06
4.89688e-06
-3.64673e-06
5.67756e-05
-2.82795e-07
1.2875e-05
-7.17014e-06
-3.10948e-06
-3.78342e-05
-1.67919e-06
3.17101e-05
-1.82703e-07
4.77234e-05
2.91099e-06
8.52381e-06
-9.79064e-07
-8.38745e-05
-4.07642e-06
5.94428e-05
2.65826e-06
1.26551e-06
-1.9437e-06
-9.96422e-05
-9.13211e-06
-2.41772e-05
-1.12073e-05
5.56728e-05
-9.12152e-06
2.30771e-05
-5.48274e-06
4.12582e-05
3.79974e-06
1.93728e-05
-5.36173e-06
-5.32219e-05
-2.26496e-05
-5.62882e-05
-2.68531e-05
6.14126e-06
-2.22892e-05
8.31865e-06
-1.51776e-05
4.84186e-06
-1.36398e-05
1.66962e-06
-2.88185e-06
3.95386e-06
5.81086e-06
1.03285e-05
2.30439e-06
2.08046e-06
-4.15765e-06
-3.04652e-05
-1.16848e-05
-3.63929e-05
-7.43354e-06
-9.02373e-06
-5.76753e-06
3.86335e-06
-6.94079e-06
-4.43827e-06
-2.90161e-06
-5.90476e-06
-1.6841e-06
-3.7604e-06
-1.85975e-06
-8.97805e-06
-9.07586e-07
-1.13274e-05
-1.07757e-06
-1.0098e-05
-1.05609e-06
-8.71869e-06
-2.74503e-07
-1.13732e-05
-2.63968e-07
-8.97468e-06
-6.57735e-07
-1.01235e-05
-1.83367e-06
-1.03496e-05
-1.72909e-06
-1.19472e-05
-1.15223e-06
-1.33457e-05
-1.04997e-06
-1.31398e-05
-6.21641e-07
-1.33537e-05
-2.68317e-07
-1.6447e-05
-5.4956e-07
-1.78308e-05
-6.31802e-07
-1.58727e-05
2.55944e-07
-1.72471e-05
3.2334e-07
-1.96566e-05
-9.85223e-08
-1.75206e-05
1.47061e-07
-1.95507e-05
-2.86446e-08
-1.67761e-05
-6.03172e-08
-2.11646e-05
-1.47451e-07
-2.16082e-05
1.93551e-07
-2.02647e-05
4.97929e-07
-1.94728e-05
-4.38766e-07
-1.51405e-05
-4.26815e-07
-1.66653e-05
8.16317e-07
-1.98057e-05
1.24915e-06
-1.79774e-05
1.05746e-06
-1.55322e-05
6.70957e-07
-1.16824e-05
6.57807e-07
-1.15302e-05
2.1152e-07
-1.11835e-05
6.06041e-07
-1.07115e-05
6.02401e-07
-1.0287e-05
6.25543e-07
-1.2972e-05
1.10693e-06
-1.21131e-05
5.59856e-07
-1.47271e-05
1.8913e-06
-1.07606e-05
1.79153e-06
-7.52132e-06
2.57918e-07
-1.57311e-05
1.78776e-06
-1.06559e-05
2.44016e-06
-8.26816e-06
2.10968e-06
-3.30112e-06
5.57432e-06
-4.36179e-06
6.53066e-06
-6.39546e-06
8.4461e-06
2.27956e-06
1.43019e-05
-1.03462e-05
5.17946e-06
-3.28367e-05
-4.15205e-06
-2.87019e-05
-4.52271e-06
-7.04076e-07
4.9122e-06
8.4134e-06
1.31594e-05
-1.93739e-06
1.40015e-05
2.28124e-06
2.28576e-05
4.87231e-06
2.85602e-05
5.04713e-06
2.33443e-05
6.75736e-06
4.43521e-06
-5.95683e-05
-3.35798e-06
-6.15537e-05
6.67873e-06
1.49794e-05
9.31242e-06
4.62968e-05
1.19726e-05
2.49162e-05
1.19182e-05
5.3568e-05
4.16453e-06
-7.62817e-06
-1.66011e-06
-9.80483e-05
4.89823e-06
-1.21864e-05
2.60742e-06
4.84008e-05
-1.97233e-06
-7.53377e-05
-3.27758e-06
5.39148e-06
-3.90801e-06
5.61721e-05
-2.20296e-06
1.0451e-05
-1.00501e-05
5.45004e-07
-3.91422e-05
5.37607e-06
2.69878e-05
9.5775e-06
4.35577e-05
2.39284e-06
1.63488e-05
1.07624e-06
-8.26396e-05
5.9374e-07
6.01576e-05
-2.95088e-06
5.45437e-06
-3.20749e-06
-9.8728e-05
-4.05111e-06
-2.31467e-05
-3.18555e-06
5.53974e-05
-1.01887e-07
1.99431e-05
2.38809e-06
3.89329e-05
6.31957e-06
1.62407e-05
6.65554e-06
-5.31645e-05
6.86169e-06
-5.53771e-05
2.36709e-06
1.27617e-05
-3.22215e-06
1.6296e-05
-3.56748e-06
7.66776e-06
1.53531e-06
-1.2535e-06
-9.85173e-07
1.01365e-05
-1.44631e-06
1.39647e-05
3.79623e-07
4.03658e-06
4.79066e-07
-2.71552e-05
6.8765e-07
-3.32833e-05
-1.78204e-06
-1.33971e-06
-5.59549e-07
7.79479e-06
-1.25616e-06
3.16851e-06
-2.22207e-06
1.88462e-06
-5.59573e-07
2.4916e-06
-1.01704e-06
-7.1243e-07
-1.18562e-06
-2.40765e-06
-6.14601e-07
-2.18083e-06
-8.31428e-08
5.69489e-07
-4.19472e-07
-1.79201e-06
-1.29645e-06
2.87484e-06
-1.63395e-06
4.24167e-07
-1.01247e-06
5.10715e-07
-4.74969e-07
-1.28019e-06
-5.6466e-07
-5.51445e-07
-7.80103e-07
-6.2722e-07
-8.4045e-07
8.95104e-07
-9.01723e-07
-2.85945e-06
3.24368e-08
-3.21254e-06
3.07053e-07
-1.13504e-06
-1.97225e-07
3.83095e-07
4.79262e-08
-3.52988e-06
1.32915e-07
1.29363e-06
9.9147e-10
-1.19363e-06
-1.58164e-07
4.19716e-06
-8.49592e-08
-1.05331e-06
-1.08456e-08
-2.14256e-07
1.66289e-07
-1.28655e-06
2.24e-07
-2.15831e-07
9.8703e-08
2.50744e-06
5.4961e-08
7.84459e-07
2.49675e-09
-3.82231e-06
8.89724e-07
-3.11722e-06
1.19408e-06
-1.17474e-06
8.29572e-08
3.7023e-06
1.69411e-08
2.1084e-06
3.63709e-07
1.35126e-06
9.97769e-09
2.14203e-06
6.66132e-07
6.84666e-07
1.78032e-06
-2.83396e-06
6.38986e-07
-6.22313e-07
-1.00484e-08
-3.99514e-06
3.53966e-07
-1.84028e-06
1.17985e-06
1.31563e-06
2.23338e-06
-8.60675e-06
1.67848e-06
-1.35905e-06
1.51394e-06
-1.69338e-07
2.73366e-06
3.29784e-06
1.88458e-06
3.21137e-06
9.08608e-07
1.65666e-06
1.8598e-06
6.6818e-06
9.66515e-08
-3.25968e-06
-7.83111e-07
-2.86709e-05
-1.88518e-06
-2.40509e-05
9.50805e-07
-1.84819e-09
2.43238e-06
1.03923e-05
-7.16481e-07
4.65602e-06
3.97174e-06
-2.3802e-07
3.5524e-06
7.63914e-06
-1.15537e-06
1.20341e-05
-5.35156e-06
1.30857e-05
-4.61038e-06
-5.92731e-05
-3.3236e-06
-6.24099e-05
-1.58037e-06
1.42399e-05
6.43272e-07
4.42114e-05
5.16724e-06
2.05164e-05
6.44678e-06
5.26258e-05
4.02708e-06
-4.77475e-06
4.32117e-06
-9.82876e-05
1.88726e-07
-7.5782e-06
1.86621e-07
4.98989e-05
1.06175e-06
-7.61714e-05
-5.19898e-06
1.21e-05
-7.80654e-07
5.07749e-05
4.46483e-06
5.5524e-06
-5.47433e-06
5.53257e-06
-4.45719e-05
1.21091e-06
3.09735e-05
4.12935e-07
4.40392e-05
2.73165e-06
1.36956e-05
-1.87401e-06
-7.85627e-05
-4.39012e-06
6.23887e-05
4.56923e-07
1.52443e-08
3.37135e-07
-9.92813e-05
-2.0528e-06
-2.12342e-05
-8.84624e-06
6.17497e-05
-9.20933e-06
1.95224e-05
-9.49116e-06
3.86274e-05
-6.25798e-06
1.20485e-05
-7.11726e-06
-5.29302e-05
-1.42599e-05
-4.96279e-05
-1.9518e-05
1.60014e-05
-1.7744e-05
1.25203e-05
-1.32659e-05
5.4293e-07
-1.16191e-05
-5.17542e-06
-2.9498e-06
-2.13936e-06
4.09017e-06
3.875e-06
4.6567e-06
4.59589e-08
-3.6536e-06
-2.274e-05
-1.34134e-05
-2.70434e-05
-7.03848e-06
-1.28248e-05
-4.30296e-06
4.11582e-07
-6.98861e-06
-4.10465e-07
-3.54247e-06
-7.23795e-06
-2.79025e-07
-7.74848e-06
5.27847e-07
-7.94161e-06
-3.00889e-07
-9.6387e-06
4.27454e-07
-9.87263e-06
-1.13855e-06
-6.78992e-06
-3.26035e-06
-7.49828e-06
-3.3571e-07
-9.80011e-06
7.57348e-07
-9.23752e-06
-1.04173e-06
-8.28031e-06
-4.63166e-07
-1.14742e-05
-7.67727e-07
-1.19806e-05
-4.00206e-07
-1.17082e-05
3.05658e-07
-1.29961e-05
-1.37433e-07
-1.42081e-05
-2.12524e-07
-1.74257e-05
-4.23192e-07
-1.39662e-05
-6.28183e-07
-1.53261e-05
-8.14971e-07
-1.76026e-05
-4.38505e-07
-1.63062e-05
-1.58762e-07
-1.7282e-05
1.05567e-07
-1.48411e-05
4.59323e-07
-1.88949e-05
2.78445e-08
-1.91697e-05
1.31325e-07
-1.82424e-05
2.92618e-07
-1.7832e-05
8.36854e-07
-1.35839e-05
9.03834e-07
-1.5001e-05
5.64141e-07
-1.79128e-05
-5.32555e-07
-1.62276e-05
-1.22306e-06
-1.37909e-05
9.42573e-07
-1.12153e-05
1.82063e-06
-1.10355e-05
1.5466e-07
-8.55379e-06
8.03416e-07
-9.98727e-06
5.65659e-07
-9.47512e-06
-1.53308e-06
-1.12266e-05
-6.15804e-07
-1.06751e-05
2.18691e-06
-1.61754e-05
1.29475e-06
-9.2954e-06
6.10898e-07
-6.42029e-06
1.09294e-06
-1.58843e-05
2.72345e-07
-8.44751e-06
1.45815e-06
-7.986e-06
3.74963e-06
-5.84931e-06
6.22825e-06
-5.10681e-06
4.60795e-06
-3.3807e-06
7.91502e-06
-1.48095e-06
1.28224e-05
-1.33799e-05
3.20833e-06
-2.25085e-05
-3.53293e-07
-2.43004e-05
1.725e-06
-5.80308e-06
3.30308e-06
5.53583e-06
6.88447e-06
-2.79219e-06
8.26476e-06
-4.45623e-06
1.76673e-05
-4.45963e-06
2.20175e-05
5.77291e-06
1.63874e-05
1.66554e-05
7.69579e-06
-5.18336e-05
6.2331e-06
-6.15924e-05
1.01664e-05
9.23986e-06
8.17477e-06
4.56182e-05
7.78717e-06
2.01959e-05
5.49741e-06
5.48005e-05
5.35273e-06
-5.2715e-06
1.17743e-06
-9.45377e-05
2.01072e-06
-9.09527e-06
1.04772e-06
5.09767e-05
-1.16517e-06
-7.43703e-05
-1.21556e-06
1.15179e-05
-6.54188e-06
5.59874e-05
-8.39565e-06
6.8951e-06
-1.43219e-05
-1.90085e-06
-4.21585e-05
-2.97558e-06
3.19277e-05
-4.41474e-06
4.58976e-05
-7.22201e-07
1.02111e-05
2.20807e-06
-8.18476e-05
1.29328e-06
6.34901e-05
-6.88193e-07
2.27579e-06
-2.60376e-06
-9.77435e-05
-4.78626e-06
-1.86998e-05
-7.91663e-06
6.41138e-05
-6.9493e-06
1.86173e-05
2.03124e-06
3.02726e-05
5.55852e-06
9.08775e-06
3.10345e-06
-5.02106e-05
3.96763e-06
-4.95903e-05
1.81469e-06
1.96436e-05
-3.62219e-06
1.96833e-05
-3.43479e-06
2.3389e-06
-7.9049e-07
-5.50678e-06
-2.96742e-06
2.37086e-06
-1.11269e-06
4.52155e-06
-8.12804e-07
2.75438e-06
-8.55134e-07
-2.00179e-05
5.28958e-07
-2.58438e-05
-2.81535e-06
-5.86404e-06
-3.40916e-06
4.92637e-06
6.24838e-07
2.53742e-07
5.08375e-07
-1.48624e-06
-2.40524e-06
2.22666e-07
-2.13921e-06
-1.78895e-06
-1.85872e-06
-3.98838e-06
-3.40502e-06
-1.32435e-06
-8.87837e-07
-2.67759e-06
1.62939e-06
-2.13941e-06
-1.14445e-06
2.48288e-09
-1.17937e-06
-7.4144e-07
-4.33956e-07
-1.14379e-06
-1.74412e-06
-8.27302e-07
-1.22115e-06
-4.1119e-06
-1.44218e-06
-1.19556e-06
-1.02948e-06
-4.13523e-06
4.20284e-07
-4.44023e-06
-4.07745e-07
-6.61427e-06
-8.61565e-07
-1.19657e-06
7.59306e-07
-5.74638e-06
1.36686e-06
-4.68988e-06
-1.40816e-07
-2.68103e-06
2.21624e-09
-2.76328e-06
-2.95356e-07
-1.35687e-06
-4.92848e-07
-2.71045e-06
1.42674e-08
-5.93196e-06
5.30938e-08
-3.38066e-06
2.61648e-07
-5.54913e-06
-1.06329e-06
1.08677e-06
-8.98855e-07
-3.8196e-06
9.78166e-07
-7.79487e-06
1.76157e-06
-6.66568e-06
2.18649e-06
-3.476e-06
7.45359e-07
-3.98225e-07
-1.14946e-07
-6.94973e-07
2.30183e-07
-1.38379e-07
-9.01579e-07
-3.20672e-07
-1.47931e-06
-8.63198e-07
1.12932e-06
-6.1319e-06
2.32059e-06
-4.37248e-06
7.79779e-07
-8.15253e-06
2.1239e-06
-3.51594e-06
2.71658e-06
-6.86516e-07
2.2268e-06
-9.31662e-06
2.96784e-06
-3.51741e-06
2.49203e-06
-1.85074e-06
-9.72468e-07
2.55579e-06
-1.32293e-06
1.57868e-07
2.81837e-06
-2.98378e-06
2.24281e-06
3.28893e-06
1.35561e-06
-8.49946e-06
9.72814e-07
-1.9586e-05
-1.79659e-06