/*--------------------------------*- C++ -*----------------------------------*\
| =========                 |                                                 |
| \\      /  F ield         | OpenFOAM: The Open Source CFD Toolbox           |
|  \\    /   O peration     | Version:  2312                                  |
|   \\  /    A nd           | Website:  www.openfoam.com                      |
|    \\/     M anipulation  |                                                 |
\*---------------------------------------------------------------------------*/
FoamFile
{
    version     2.0;
    format      ascii;
    arch        "LSB;label=32;scalar=64";
    class       surfaceScalarField;
    location    "1";
    object      phi.air;
}
// * * * * * * * * * * * * * * * * * * * * * * * * * * * * * * * * * * * * * //

dimensions      [0 3 -1 0 0 0 0];

oriented        oriented;

internalField   nonuniform List<scalar> 
99400
(
-2.14816e-06
0.000524982
-2.15467e-06
0.000564467
5.06434e-06
0.00059315
-8.30911e-06
0.000609592
9.19064e-06
0.000624449
-9.18798e-06
0.000700565
-4.22762e-06
0.000698019
1.44407e-05
0.000712848
2.70005e-05
0.000759361
-8.73459e-08
0.000822329
6.98621e-07
0.000871948
-7.57474e-06
0.000909613
-1.13579e-05
0.000931258
1.53808e-05
0.000950437
3.30178e-05
0.00100131
2.32304e-05
0.00105728
1.19649e-05
0.00113364
4.85073e-06
0.00113927
7.17515e-06
0.00120059
2.0693e-06
0.00122883
-7.04425e-06
0.00131981
-1.40575e-05
0.00138127
-5.23168e-06
0.00143605
1.30349e-05
0.00151138
1.14685e-05
0.00154033
5.08611e-06
0.00163935
2.54745e-06
0.00169677
1.47164e-06
0.0017592
-3.92289e-08
0.00184373
-1.16481e-06
0.0019301
1.372e-09
0.00202222
5.26873e-07
0.00211507
-2.1302e-07
0.00221995
-4.63503e-07
0.00232245
-1.08633e-07
0.00243425
-2.91822e-07
0.00255098
-8.74701e-07
0.00268012
-9.89962e-07
0.00280086
-2.30949e-07
0.00293897
-1.76145e-07
0.00307572
-5.35886e-07
0.00322435
-4.08495e-07
0.00337884
-1.53422e-07
0.00354118
-8.92736e-08
0.00371167
-1.18234e-07
0.00388842
1.0335e-07
0.00407712
5.25889e-08
0.00427168
1.06166e-07
0.0044779
-4.88078e-08
0.0046951
-3.43254e-09
0.00491957
3.87784e-08
0.00491864
5.69989e-08
0.00469402
9.57313e-08
0.00447755
9.31007e-08
0.00427406
8.37362e-08
0.0040761
2.54835e-07
0.00389003
3.69171e-07
0.00371102
4.20188e-07
0.00354073
3.42275e-07
0.00337948
1.41757e-07
0.00322587
7.96289e-08
0.00307564
4.18715e-07
0.00293669
2.54964e-07
0.00279994
-5.69183e-07
0.00268128
-8.32716e-07
0.00254859
1.26208e-06
0.00244544
4.51854e-07
0.00232227
-5.96366e-07
0.00222233
1.28448e-06
0.0021222
1.79996e-06
0.00202038
4.84859e-07
0.00193217
-7.46844e-07
0.00184513
-1.9302e-06
0.00175915
-3.6714e-06
0.00168618
-8.80642e-06
0.00163374
-1.28475e-05
0.00153671
3.35701e-06
0.00150797
1.41414e-05
0.00143709
8.23398e-06
0.0013727
-5.05516e-07
0.00131932
-6.70792e-06
0.00122708
-4.98602e-06
0.00119977
-1.21031e-05
0.001135
-2.22233e-05
0.00113147
-3.17647e-05
0.00105947
-1.61364e-05
0.00100328
1.10573e-05
0.000949206
1.10343e-05
0.000928706
-1.02552e-06
0.000915243
3.03546e-06
0.000874351
-2.68063e-05
0.000827246
-1.5218e-05
0.000762177
8.70879e-06
0.000710159
1.12859e-05
0.000698712
-5.86247e-06
0.000698483
1.91147e-05
0.000622225
4.52131e-06
0.000605277
2.82017e-06
0.000594335
5.74648e-06
0.00055992
0.000527992
2.64292e-05
0.000599096
-6.13624e-06
0.000660992
-3.44031e-05
0.00069754
-2.07422e-05
0.000694851
1.45558e-05
0.000715099
-4.53348e-05
0.000821191
-3.14763e-05
0.000804424
1.76918e-05
0.000799229
5.26273e-05
0.000854116
4.8813e-05
0.000949784
4.64322e-06
0.00101348
-4.95627e-05
0.00106866
-4.03e-05
0.00106334
8.91932e-06
0.00107482
4.9239e-05
0.00113269
4.56053e-05
0.00121852
1.73131e-06
0.00129687
-6.26207e-06
0.00127979
3.57715e-06
0.00134205
7.4255e-06
0.00139014
-7.97419e-06
0.00147062
-2.42472e-05
0.00154354
-1.06459e-05
0.00161895
1.34343e-05
0.00170771
1.66318e-05
0.00175502
4.3147e-06
0.00184449
-1.35405e-06
0.0019238
4.75259e-07
0.00201113
-5.04663e-07
0.00210545
-2.30382e-06
0.00220711
-3.50834e-07
0.00231274
9.31083e-07
0.00242259
-4.91989e-07
0.00253952
-8.37988e-07
0.00265868
2.25716e-07
0.00278757
1.22205e-07
0.00292042
-1.54529e-06
0.00306413
-1.61323e-06
0.00320742
-3.52033e-07
0.00336415
-2.20873e-07
0.0035238
-7.11541e-07
0.00369257
-5.31487e-07
0.00386934
-1.92712e-07
0.00405446
-1.38022e-07
0.00425167
-1.35197e-07
0.00445459
1.05854e-07
0.00466925
9.11535e-08
0.00489349
1.81054e-07
0.00513037
-7.16856e-08
0.00537835
-3.64865e-08
0.00563615
5.46223e-08
0.00563408
7.91113e-08
0.00537676
1.38673e-07
0.00512926
8.50379e-08
0.0048958
1.0398e-07
0.00467006
2.99919e-07
0.0044542
4.78484e-07
0.00424994
6.14452e-07
0.00405511
4.9268e-07
0.00387122
1.11433e-07
0.00369399
8.81785e-08
0.00352315
8.8933e-07
0.0033623
7.6767e-07
0.00320707
-1.14621e-06
0.00306456
-1.07274e-06
0.00291931
1.6837e-06
0.00279306
9.46728e-07
0.00265875
-8.63351e-07
0.00254043
1.73164e-06
0.00242539
3.28936e-06
0.00231169
1.07679e-06
0.0022079
-5.78244e-07
0.00210624
7.17341e-07
0.00201015
-2.17032e-06
0.00192079
-1.29548e-05
0.00184239
-1.25496e-05
0.00175547
8.01278e-06
0.00170277
2.28398e-05
0.00162136
1.07901e-05
0.00153855
-4.90315e-06
0.00147116
-2.92204e-06
0.00139045
5.17673e-06
0.00133931
3.43418e-07
0.00127789
-4.16683e-05
0.00129172
-4.82683e-05
0.00121987
-9.66834e-06
0.00113282
4.09747e-05
0.0010732
5.54786e-05
0.00105923
4.26972e-06
0.00106696
-3.89212e-05
0.00101399
-5.39985e-05
0.000955018
-2.20704e-05
0.000860295
3.3927e-05
0.000792327
4.31102e-05
0.000805898
-1.67764e-05
0.000819356
2.87249e-05
0.000705509
5.20726e-05
0.000691199
1.8317e-05
0.00069611
-4.38475e-06
0.000648746
0.000598079
-2.50521e-06
0.000665078
-9.79037e-06
0.00075369
-1.9098e-05
0.000798253
-2.6785e-05
0.000764285
1.69738e-06
0.000781042
-2.14425e-05
0.000922622
-2.1751e-05
0.000884262
9.54962e-06
0.000862551
2.80787e-05
0.000939046
1.58734e-05
0.0010524
-3.03428e-06
0.00117435
-2.15981e-05
0.00121473
-2.57614e-05
0.0011702
-1.2126e-06
0.00119002
1.80005e-05
0.00124716
1.14093e-05
0.00137813
4.00703e-06
0.00147633
2.76458e-06
0.00149469
-7.34137e-06
0.0015553
-7.89804e-06
0.00161052
-9.58528e-06
0.00170919
-1.2822e-05
0.0018046
-5.47133e-06
0.0018592
6.26283e-06
0.00195349
6.29361e-06
0.00203823
2.43701e-06
0.0021583
1.5481e-06
0.00224985
-1.40548e-07
0.0023435
-7.44864e-07
0.00245807
-5.35566e-07
0.00257447
-3.45871e-07
0.00269683
-5.15606e-07
0.00282511
-5.45308e-07
0.00296432
-3.16061e-07
0.00310335
-7.42132e-07
0.00325156
-9.2837e-07
0.00340982
-9.8503e-07
0.00357696
-9.39116e-07
0.0037442
-7.28403e-07
0.00392546
-6.67956e-07
0.00411397
-8.04846e-07
0.004311
-6.22778e-07
0.00451824
-2.19311e-07
0.00473487
-1.87372e-07
0.00496385
-1.77376e-07
0.00520111
1.37336e-07
0.00545258
1.34238e-07
0.00571371
1.79005e-07
0.00599009
-8.49357e-08
0.00627981
-4.77667e-08
0.00658067
8.00159e-08
0.00657891
1.07928e-07
0.00627769
1.94045e-07
0.00598882
9.55351e-08
0.00571591
6.39131e-08
0.00545227
3.62083e-07
0.00520176
5.99114e-07
0.00496266
7.29533e-07
0.004735
5.32319e-07
0.00451963
3.8029e-07
0.0043128
3.02277e-07
0.00411299
2.97854e-07
0.00392401
2.76494e-07
0.00374363
1.49005e-07
0.00357733
6.2297e-08
0.00340781
8.99769e-07
0.00325576
8.34482e-07
0.00310252
6.84025e-07
0.00296593
1.52657e-06
0.00282745
1.17379e-06
0.00269597
1.13815e-06
0.00257594
7.24597e-07
0.00246054
-1.24982e-06
0.00234315
-1.15841e-06
0.00224191
-3.62353e-06
0.00215493
-5.94725e-06
0.00204195
4.74933e-06
0.00195336
1.33944e-05
0.00186149
1.06131e-05
0.00179841
8.07831e-06
0.00171027
8.3972e-06
0.00161251
-1.68547e-06
0.00155634
-3.34845e-06
0.00149131
-9.36416e-06
0.00147368
-1.62009e-05
0.00138247
2.22057e-06
0.00124455
2.81442e-05
0.00118922
2.53078e-05
0.00116499
8.8024e-06
0.00120761
-1.11288e-05
0.0011781
-2.50972e-05
0.00106395
-1.12389e-05
0.00094397
2.06245e-05
0.000857498
2.1159e-05
0.000886196
-3.21266e-06
0.000924847
2.20393e-05
0.000774581
9.50345e-06
0.000770031
-8.09572e-06
0.000804926
-2.14614e-06
0.000731741
0.000676226
-9.29815e-06
0.000681069
-1.55368e-06
0.000745812
-8.54131e-06
0.00081011
-1.96897e-05
0.000777323
3.96256e-06
0.000771588
-4.78849e-07
0.000932059
-9.4907e-06
0.00089338
1.57678e-05
0.000854918
2.67402e-05
0.00093865
3.72931e-07
0.00106415
-4.98705e-06
0.00119451
-1.08828e-05
0.00122628
-2.13229e-05
0.00118386
-2.93604e-06
0.00118484
8.91806e-06
0.00124874
-3.74479e-06
0.00137899
2.75397e-05
0.00147377
2.82795e-05
0.00148903
-1.1359e-05
0.00155726
-1.73871e-05
0.00160817
-6.48282e-06
0.00170613
-1.11671e-05
0.00180423
-5.34185e-06
0.0018488
7.76886e-06
0.0019353
6.56769e-06
0.00202684
2.76452e-06
0.00215131
2.92535e-06
0.00223689
2.40946e-07
0.00232453
-1.5201e-06
0.00243788
-4.2863e-07
0.00255423
-1.80616e-07
0.00267415
-6.39904e-07
0.002802
-5.09345e-07
0.00294026
-3.61814e-08
0.00307757
-5.8989e-07
0.00322585
-1.35515e-06
0.0033817
-1.12072e-06
0.00354935
-9.54386e-07
0.00371271
-7.24504e-07
0.0038931
-7.35752e-07
0.00407833
-8.21524e-07
0.00427559
-6.21329e-07
0.00447903
-2.40625e-07
0.00469362
-1.98642e-07
0.00492174
-1.51809e-07
0.00515731
1.2999e-07
0.00540512
1.48076e-07
0.00566533
2.08607e-07
0.00593848
-8.22746e-08
0.00622696
-4.72023e-08
0.00652396
8.25189e-08
0.00652255
1.05813e-07
0.00622432
1.96219e-07
0.00593804
9.91498e-08
0.00566787
9.6352e-08
0.00540629
3.83672e-07
0.005156
6.33469e-07
0.00491993
7.4064e-07
0.00469383
5.86223e-07
0.00448221
4.11929e-07
0.00427631
2.81709e-07
0.00407923
1.70926e-07
0.00389148
3.0618e-07
0.00371316
4.04392e-07
0.00354895
-7.71326e-08
0.00337946
7.869e-07
0.00322823
8.48904e-07
0.00307745
6.96277e-07
0.00294221
1.49921e-06
0.00280369
1.17526e-06
0.00267369
2.07014e-06
0.00255682
4.30886e-07
0.00244025
-2.83615e-06
0.00232443
-9.27317e-07
0.00222963
-3.02256e-06
0.00214874
-7.7119e-06
0.00202702
4.46784e-06
0.00193512
1.24278e-05
0.00184812
7.14624e-06
0.00179576
1.72926e-05
0.00170784
1.30022e-05
0.00160832
-2.70383e-05
0.00155767
-2.87711e-05
0.00148167
3.80731e-06
0.00147137
-7.46201e-06
0.00138314
5.01349e-06
0.00124959
2.23146e-05
0.00118256
1.59257e-05
0.00117876
9.07488e-06
0.00122832
7.18839e-07
0.00119641
-2.27863e-05
0.00107698
-1.54928e-05
0.000945086
1.141e-05
0.000851185
2.89157e-06
0.000892285
-1.68819e-07
0.000930087
2.191e-05
0.000763825
6.98435e-06
0.0007852
9.64173e-06
0.000805174
2.30697e-05
0.000715397
0.000697512
7.74352e-07
0.000695048
7.3203e-06
0.000757682
3.35605e-06
0.000830771
-4.70558e-06
0.000807754
7.75855e-06
0.000782903
2.95829e-06
0.000956943
-2.59895e-06
0.000921915
1.22752e-05
0.000874476
5.52923e-06
0.000965444
-6.59154e-06
0.00110833
-7.30094e-06
0.00121612
-5.96854e-06
0.0012683
-1.04309e-05
0.00123458
-9.96229e-06
0.00121963
-9.1719e-06
0.00129199
-9.09446e-06
0.0014408
-4.97767e-06
0.00151205
-3.44553e-06
0.00155721
-6.70077e-06
0.00165937
-6.08148e-06
0.00171177
-6.26577e-06
0.00179746
-5.10546e-06
0.00190719
-2.1517e-06
0.00195116
-2.00959e-06
0.00203147
2.83705e-07
0.00215506
-2.59921e-07
0.00228263
-2.87921e-07
0.00238082
-8.21593e-07
0.00248159
-1.11169e-06
0.00260379
-4.97662e-07
0.00272608
-7.9219e-07
0.00285373
-8.51877e-07
0.00299234
-7.63058e-07
0.00313911
-5.37745e-07
0.00328854
-8.86799e-07
0.00344583
-9.1406e-07
0.00361434
-8.94027e-07
0.00378972
-7.4646e-07
0.00396814
-9.6815e-07
0.00415804
-9.23692e-07
0.00435988
-8.65203e-07
0.00456912
-6.62423e-07
0.00478906
-2.72177e-07
0.00501803
-2.14177e-07
0.00526137
-1.72278e-07
0.00551332
1.47706e-07
0.00577902
1.82296e-07
0.00605683
2.21502e-07
0.00634861
-1.27106e-07
0.00665584
-7.60659e-08
0.00697461
9.22579e-08
0.00697393
1.49491e-07
0.00665445
2.56536e-07
0.00634838
7.51328e-08
0.00605858
4.69179e-08
0.0057789
3.89633e-07
0.00551339
7.05055e-07
0.00525988
9.22944e-07
0.00501878
6.002e-07
0.00479004
4.65001e-07
0.0045705
3.30283e-07
0.00435973
1.08731e-07
0.00415829
1.0737e-07
0.00396777
5.04868e-07
0.00378964
6.38287e-07
0.00361177
6.9801e-07
0.00344475
1.08174e-06
0.00328765
1.16135e-06
0.00314106
1.48172e-06
0.00299191
1.21479e-06
0.00285465
1.57875e-06
0.00272733
1.26332e-06
0.002606
6.19184e-07
0.00248251
1.32044e-06
0.00237557
1.36226e-06
0.00228162
3.02682e-06
0.00215703
3.36711e-06
0.00203486
5.35792e-06
0.0019481
6.36509e-06
0.00190198
6.41306e-06
0.00179989
8.09124e-06
0.00171143
4.91211e-06
0.00166113
6.39894e-06
0.00155348
9.95764e-06
0.00150873
1.05385e-05
0.00144442
1.14515e-05
0.00128926
1.5476e-05
0.00121722
1.08506e-05
0.00122369
9.91119e-06
0.00126209
8.96135e-06
0.00121932
-1.96072e-06
0.00111611
-1.08551e-05
0.000973688
1.00321e-06
0.000870681
-3.82969e-07
0.000918567
-3.14485e-06
0.000949919
5.6204e-06
0.000779111
-1.01154e-06
0.000812465
5.52711e-07
0.000824987
1.22377e-06
0.000730173
0.000728909
7.74365e-06
0.000682575
6.29729e-06
0.000761092
5.35895e-06
0.000828013
-1.71168e-06
0.000811449
9.30935e-06
0.000771516
6.24371e-06
0.000953875
-3.60462e-06
0.000925772
5.55092e-06
0.000869652
7.21699e-08
0.000971661
-1.37193e-05
0.00111359
7.7206e-07
0.00119611
1.05738e-05
0.00125333
-1.06397e-05
0.00123478
-8.40738e-06
0.00122028
-4.10878e-06
0.00127833
-5.37852e-07
0.00141623
8.05117e-06
0.00148831
-4.13763e-06
0.00154094
3.74496e-07
0.00164532
-1.90691e-06
0.00167999
-9.14668e-06
0.00176808
-4.22574e-06
0.00187598
-1.27316e-06
0.00191072
1.60876e-06
0.00199835
3.92625e-08
0.00210837
8.7929e-07
0.00223959
2.05944e-06
0.00232784
-3.39457e-07
0.0024228
-9.3406e-07
0.00254189
-1.98758e-07
0.00265767
-5.22269e-07
0.00278468
-9.84447e-07
0.0029175
-6.58125e-07
0.003062
-6.62543e-07
0.003205
-1.30068e-06
0.003361
-1.39523e-06
0.0035237
-6.60788e-07
0.00369784
-6.40352e-07
0.00386775
-8.70139e-07
0.00405615
-9.57564e-07
0.00424906
-8.69018e-07
0.00445461
-6.57879e-07
0.00466703
-2.34409e-07
0.00489148
-1.98136e-07
0.00512804
-1.55129e-07
0.00537392
1.39492e-07
0.00563189
1.76479e-07
0.00590368
2.14707e-07
0.00618763
-1.14135e-07
0.00648863
-6.02323e-08
0.00679746
1.01776e-07
0.00679697
1.25919e-07
0.0064856
2.21884e-07
0.00618767
7.37987e-08
0.00590613
6.64392e-08
0.00563297
3.9458e-07
0.00537306
7.07045e-07
0.00512612
8.50392e-07
0.00489164
6.40732e-07
0.00466977
5.67522e-07
0.00445682
3.51251e-07
0.00425012
-1.33556e-07
0.00405583
-1.54981e-07
0.00386826
7.49482e-07
0.00369717
7.32677e-07
0.00352079
1.10182e-06
0.00336202
9.84799e-07
0.00320528
1.14524e-06
0.00306471
1.55136e-06
0.00291718
7.95842e-07
0.00278467
1.67893e-06
0.00266044
1.95743e-06
0.00254316
-2.83127e-07
0.00242416
-5.64173e-07
0.00231731
2.59508e-07
0.00223471
-9.68903e-07
0.00210964
2.02017e-06
0.00199911
5.44157e-06
0.00190925
7.9783e-06
0.0018697
1.27097e-06
0.00176974
1.57444e-06
0.00167766
6.69734e-06
0.00164707
-7.17325e-06
0.00153829
2.15139e-07
0.00148506
5.41816e-06
0.00141924
1.15013e-05
0.00127607
1.4122e-05
0.00121546
-5.99677e-06
0.00122623
8.3832e-07
0.00124824
1.36081e-05
0.00119901
3.24221e-06
0.00112059
-4.64085e-06
0.000982013
3.18211e-06
0.00086702
-3.841e-06
0.000918987
-3.66476e-06
0.000945902
2.83145e-06
0.000771351
1.81296e-06
0.000808767
8.62391e-08
0.000832591
-1.41917e-05
0.000739993
0.000710297
7.08487e-06
0.000680982
4.51584e-06
0.000773298
1.81665e-06
0.000834124
8.84954e-07
0.000821246
6.14991e-06
0.000774816
1.99851e-06
0.000959832
8.46695e-07
0.000939501
2.13399e-06
0.000878353
-7.5547e-06
0.000989347
-1.4156e-05
0.00112893
-3.2166e-06
0.00118928
1.27262e-06
0.0012511
-1.44541e-06
0.00126476
-9.1782e-06
0.00123991
-1.30712e-05
0.00130475
-1.19277e-05
0.00144696
-1.24625e-05
0.00150907
-1.08473e-05
0.00158569
-7.34784e-06
0.00168111
-3.15782e-06
0.00173607
-2.74396e-06
0.00182649
-6.17453e-07
0.00192458
-1.40381e-07
0.00196934
-6.45964e-06
0.00205285
-4.52173e-06
0.00218721
-2.69617e-06
0.00231107
-2.13069e-06
0.00241295
-1.46898e-06
0.00252152
-1.20368e-06
0.00264524
-8.50877e-07
0.00276805
-1.0655e-06
0.00289946
-8.18682e-07
0.00304087
-7.48309e-07
0.00318919
-6.86452e-07
0.00334113
-9.76624e-07
0.00350244
-9.66058e-07
0.00367305
-9.26168e-07
0.00385029
-6.74916e-07
0.00403298
-1.01107e-06
0.00422564
-1.03256e-06
0.00443081
-8.35601e-07
0.00464378
-5.70668e-07
0.0048669
-2.44795e-07
0.00509975
-2.1717e-07
0.00534725
-1.54995e-07
0.00560364
1.46845e-07
0.00587254
1.74318e-07
0.00615619
2.23181e-07
0.00645224
-1.47891e-07
0.00676506
-7.58227e-08
0.0070885
8.29802e-08
0.00708759
1.75598e-07
0.00676343
2.74221e-07
0.0064523
2.53172e-08
0.00615795
3.39301e-08
0.00587375
3.78753e-07
0.0056032
7.63456e-07
0.00534541
9.98291e-07
0.00510093
6.17858e-07
0.00486873
4.33193e-07
0.00464591
3.10772e-07
0.00443191
-3.61556e-09
0.00422779
-2.71362e-08
0.00403361
7.34926e-07
0.00385047
1.05969e-06
0.00367111
6.15529e-07
0.00349889
1.15711e-06
0.00334076
1.18807e-06
0.00319153
1.47702e-06
0.00303759
1.70838e-06
0.00290143
1.89829e-06
0.0027692
2.1156e-06
0.00264647
2.66716e-06
0.00252272
3.01591e-06
0.00240917
4.41861e-06
0.002309
8.39263e-06
0.00218981
2.43004e-06
0.00205521
3.72561e-07
0.00196669
2.56892e-06
0.00192056
3.35067e-06
0.00182682
8.29239e-06
0.00173265
1.22266e-05
0.0016825
1.35771e-05
0.00158532
1.27387e-05
0.00150562
1.41306e-05
0.00144824
1.08017e-05
0.00130117
5.51716e-06
0.00123448
1.53831e-06
0.00125575
4.13761e-06
0.0012523
1.54155e-05
0.00119318
1.03762e-05
0.00113209
-1.83863e-06
0.00100129
-1.41672e-06
0.000877532
3.19657e-07
0.000929848
-7.09168e-07
0.00094946
1.36497e-06
0.000779265
1.59199e-06
0.000814831
-3.44536e-06
0.000839806
-6.83276e-06
0.000754573
0.000709838
6.31136e-06
0.000667104
4.44492e-06
0.000773479
5.66137e-06
0.000829854
-5.30571e-07
0.000821183
3.9557e-06
0.000769499
6.02971e-06
0.000954408
-1.89182e-06
0.000939164
-4.12485e-07
0.000879556
-6.78137e-06
0.00099471
-1.30222e-05
0.0011308
6.47184e-07
0.00117209
8.39896e-06
0.0012403
-9.7227e-07
0.00126107
-2.79573e-06
0.00123896
-2.39865e-06
0.00129256
-4.46483e-06
0.00142786
-1.00278e-05
0.00149714
-1.03981e-05
0.00156662
2.57342e-06
0.001655
-2.9291e-06
0.00170872
-5.97552e-06
0.00180167
4.72889e-07
0.00188883
6.35142e-07
0.00193556
-2.14961e-06
0.00202652
-5.04047e-06
0.00214366
-1.7565e-06
0.00226928
3.85941e-07
0.0023611
-5.48517e-07
0.00246757
-7.63877e-07
0.00258707
-7.25708e-07
0.00270494
-1.05935e-06
0.00283333
-9.59727e-07
0.00297055
-6.40422e-07
0.00311554
-6.98095e-07
0.00326363
-1.14428e-06
0.00342106
-8.6589e-07
0.00358776
-2.02872e-07
0.00376099
-4.27875e-07
0.0039394
-8.95717e-07
0.00412841
-9.14525e-07
0.00432754
-8.01259e-07
0.00453526
-6.20784e-07
0.00475287
-2.32715e-07
0.00497982
-2.01488e-07
0.00522238
-1.34452e-07
0.00547217
1.70679e-07
0.00573557
1.58641e-07
0.006012
2.06457e-07
0.00630166
-1.35017e-07
0.00660767
-6.01513e-08
0.00692274
8.20523e-08
0.00692208
1.31038e-07
0.0066052
2.32839e-07
0.00630201
2.11548e-08
0.00601476
4.41555e-08
0.0057376
3.92759e-07
0.00547137
7.19455e-07
0.0052213
8.97442e-07
0.00498157
6.94021e-07
0.00475691
5.23014e-07
0.00453767
3.90401e-07
0.00432959
-3.171e-07
0.00412959
-7.64472e-07
0.00394106
3.97298e-07
0.00375981
9.18861e-07
0.00358597
8.81559e-07
0.00341979
9.11518e-07
0.00326419
1.08259e-06
0.00311803
2.0044e-06
0.00296841
1.65957e-06
0.00283388
1.64792e-06
0.00270674
1.75221e-06
0.00258748
1.32641e-06
0.00246924
1.53038e-06
0.00235478
3.95788e-06
0.0022656
3.24132e-06
0.00214317
7.2624e-07
0.0020275
-2.30141e-07
0.00193554
4.95557e-06
0.00188537
2.31256e-06
0.00180128
-1.05011e-06
0.00170411
1.25564e-05
0.00165572
1.09052e-05
0.00156703
5.31106e-06
0.00149449
3.95373e-06
0.0014286
5.68286e-06
0.00128845
4.8617e-06
0.00123233
-7.07901e-06
0.00125326
-7.52041e-07
0.00124224
1.32509e-05
0.00117467
9.53427e-06
0.00113242
9.89283e-07
0.00100881
1.08264e-06
0.000878026
-3.43867e-06
0.000927408
8.85196e-07
0.000942818
3.2324e-06
0.000775007
-1.72198e-07
0.000813576
-2.57032e-06
0.000820032
-4.76074e-06
0.000752253
0.000702585
1.00076e-06
0.000672422
1.5941e-06
0.00077597
1.85027e-06
0.000830448
2.05716e-06
0.000826589
1.82922e-06
0.000773035
6.39125e-07
0.000958035
1.8559e-06
0.000945427
-2.26933e-07
0.000886142
-7.79225e-06
0.00100537
-1.22237e-05
0.00113787
-3.56119e-06
0.00116737
1.38501e-06
0.00123805
1.68034e-06
0.0012705
-5.2122e-06
0.00125206
-1.22181e-05
0.00131278
-1.42382e-05
0.0014492
-1.60328e-05
0.00151899
-1.20825e-05
0.00159074
-6.36595e-06
0.00166912
-2.66046e-06
0.00174612
-5.66693e-07
0.00183652
1.18277e-06
0.00191986
-1.05053e-06
0.00197549
-7.79723e-06
0.0020637
-6.01061e-06
0.00219816
-4.01772e-06
0.00231641
-3.12733e-06
0.00242027
-1.64205e-06
0.00253459
-1.28575e-06
0.00265878
-1.22883e-06
0.00278256
-1.09623e-06
0.00291423
-1.01654e-06
0.00305712
-8.56892e-07
0.00320538
-5.43329e-07
0.00335824
-7.65496e-07
0.00352135
-7.48859e-07
0.00369153
-9.21752e-07
0.00386854
-9.45462e-07
0.00405477
-1.05156e-06
0.00424761
-9.91505e-07
0.00445454
-7.29947e-07
0.00466837
-4.8041e-07
0.00489175
-3.8073e-07
0.00512542
-3.85651e-07
0.00537543
3.58305e-08
0.0056326
2.39036e-07
0.00590307
6.14089e-08
0.00618879
1.96868e-07
0.00648635
-1.01518e-07
0.00680103
-5.47432e-08
0.00712629
-2.16181e-08
0.00712457
1.59487e-07
0.0067994
3.29441e-07
0.00648594
-1.56604e-07
0.00619178
-1.61306e-07
0.00590513
5.84908e-07
0.00563222
9.34861e-07
0.00537353
1.0069e-06
0.00512859
6.8403e-07
0.00489526
6.01454e-07
0.00467081
3.07456e-07
0.00445592
9.44335e-08
0.00425134
-2.08201e-07
0.0040559
5.06991e-07
0.00386829
1.08359e-06
0.00368962
6.83922e-07
0.00351665
1.41593e-06
0.00335883
1.49799e-06
0.00320683
1.22279e-06
0.00305108
1.83642e-06
0.00291571
2.12726e-06
0.00278315
2.06228e-06
0.00265987
3.3023e-06
0.00253575
4.29788e-06
0.0024185
5.74341e-06
0.00231498
9.75955e-06
0.00219842
2.57512e-06
0.00206601
-2.06824e-06
0.00197516
6.48987e-07
0.00191699
3.25243e-06
0.00183467
6.9905e-06
0.00174077
1.28163e-05
0.00166974
1.69503e-05
0.00159107
1.54068e-05
0.00151521
1.34142e-05
0.0014495
6.39269e-06
0.00130874
5.90176e-07
0.00124457
3.10619e-07
0.00126517
3.47164e-06
0.00124184
1.29748e-05
0.00116944
1.05372e-05
0.00113685
1.59059e-06
0.00102037
-1.8532e-06
0.000886005
5.87953e-07
0.000932535
1.96762e-06
0.000947121
3.91105e-07
0.000780892
-2.63375e-06
0.000821543
-4.33195e-06
0.000830782
-3.53159e-06
0.000755879
0.000703019
1.66612e-06
0.00067608
3.37195e-06
0.000772923
5.89334e-06
0.00082719
1.30763e-06
0.000827869
1.64175e-06
0.000772326
1.81884e-06
0.000956658
-1.03827e-06
0.000942757
-2.4015e-06
0.000882101
-6.55823e-06
0.00100688
-8.81197e-06
0.00113726
-2.44592e-06
0.00115922
2.47295e-06
0.00123143
3.35764e-06
0.00126286
5.95869e-07
0.0012501
-3.69079e-06
0.00130805
-8.48987e-06
0.00143784
-1.16834e-05
0.00150758
-9.74803e-06
0.00157249
-2.6416e-06
0.00164619
-2.43694e-06
0.00172325
-7.71194e-07
0.00181387
9.5378e-07
0.00189307
-7.49336e-07
0.00195141
-3.71565e-06
0.00204245
-5.14415e-06
0.00216108
-2.5113e-06
0.00228182
-2.32233e-06
0.00237999
-1.89613e-06
0.00248924
-9.22496e-07
0.00261132
-1.19105e-06
0.00273074
-1.09082e-06
0.00286156
-9.3222e-07
0.00299863
-5.75259e-07
0.00314642
-4.98392e-07
0.00329497
-9.59458e-07
0.00345642
-1.10596e-06
0.00362157
-9.12072e-07
0.00379783
-8.30268e-07
0.00397701
-8.49982e-07
0.00417007
-9.38306e-07
0.00436942
-7.81204e-07
0.00458143
-6.51949e-07
0.00479857
-2.3011e-07
0.00503013
-1.5295e-07
0.00527291
-4.16556e-08
0.00552816
1.85737e-07
0.00579087
9.85772e-08
0.00607401
1.30086e-07
0.00636335
-1.10724e-07
0.00667569
-7.77861e-08
0.00699064
-1.0379e-08
0.00699277
1.43553e-07
0.00666976
2.98018e-07
0.00636539
-7.59127e-08
0.00607444
-7.47378e-08
0.0057952
3.70663e-07
0.00552499
9.5147e-07
0.00527284
1.08191e-06
0.00503144
4.99296e-07
0.00480438
4.03815e-07
0.00458292
3.48137e-07
0.00437249
5.91413e-08
0.00417148
7.90387e-08
0.00397949
9.53854e-07
0.00379565
8.7863e-07
0.00362077
5.23077e-07
0.00345353
1.0214e-06
0.00329523
1.37443e-06
0.00314797
1.73508e-06
0.0029952
1.79624e-06
0.00286227
1.88656e-06
0.00273217
2.30293e-06
0.00261244
2.88054e-06
0.0024916
2.73771e-06
0.00237681
4.92145e-06
0.00227957
5.25705e-06
0.00215969
1.57347e-06
0.00204517
-1.9507e-06
0.0019527
6.08577e-07
0.00188818
3.54873e-06
0.00181118
3.20308e-06
0.00171659
1.0258e-05
0.00164733
1.22523e-05
0.00157211
9.72754e-06
0.0015035
4.98541e-06
0.00143817
1.03691e-06
0.00130416
-4.0405e-07
0.00124189
-1.33136e-06
0.00125806
2.45612e-06
0.00123612
9.9642e-06
0.00116008
9.36636e-06
0.00113515
2.7821e-06
0.00102308
1.42277e-06
0.000885556
-5.80826e-07
0.000930401
1.60871e-06
0.000946539
1.55903e-06
0.00077947
-3.86726e-06
0.00082312
-2.28742e-06
0.000835609
-3.20278e-07
0.000750827
0.000701652
4.77299e-06
0.000669868
2.45156e-06
0.000776781
3.51739e-06
0.000827192
2.80794e-06
0.000831503
2.80614e-07
0.000777907
-1.4001e-06
0.000960355
-8.01148e-08
0.000944672
-1.06542e-06
0.00088714
-4.47003e-06
0.0010127
-9.13243e-06
0.0011456
-5.30718e-06
0.00115969
-2.85438e-06
0.00123249
-4.547e-07
0.00126534
-3.46688e-06
0.00125641
-9.41461e-06
0.00132148
-1.37489e-05
0.001456
-1.49904e-05
0.00152425
-1.14574e-05
0.00158877
-7.16978e-06
0.00166106
-2.53765e-06
0.00174428
1.26758e-06
0.00183389
2.62579e-06
0.00191671
-1.87937e-06
0.00198164
-9.0141e-06
0.00207247
-5.96293e-06
0.00219722
-3.83805e-06
0.00231485
-4.62811e-06
0.00242468
-2.60189e-06
0.00253684
-8.46244e-07
0.00265877
-4.92208e-07
0.00278613
-8.95846e-07
0.00291837
-3.72718e-07
0.00305959
-8.5401e-07
0.00321017
-1.61504e-06
0.00336388
-7.22782e-07
0.00352496
-2.91859e-07
0.00369544
-1.03656e-06
0.00387356
-6.43059e-07
0.00405835
-8.89021e-07
0.00425299
-7.16018e-07
0.00445933
-3.69731e-07
0.00467348
-4.26892e-07
0.00489721
-2.66832e-07
0.00513035
-2.46145e-07
0.00538138
-2.8286e-07
0.00564004
-1.8608e-07
0.00590956
-1.2272e-07
0.00619633
4.17957e-08
0.0064941
-4.44257e-08
0.00681006
1.54969e-07
0.00713486
-1.68507e-08
0.00713408
1.45565e-07
0.00680706
2.7512e-07
0.00649411
3.0517e-07
0.00619926
3.0775e-07
0.00591274
4.66567e-07
0.00563839
3.59009e-07
0.00537981
1.85227e-07
0.00513459
6.86168e-07
0.00490098
9.8831e-07
0.00467591
2.64656e-07
0.0044623
3.85004e-07
0.00425641
3.05766e-07
0.00406056
-4.23833e-08
0.00387226
3.65575e-07
0.00369431
1.10985e-06
0.00351934
1.21616e-06
0.00336311
1.17755e-06
0.00321116
1.48067e-06
0.00305334
1.2651e-06
0.00292044
1.90628e-06
0.00278657
2.98354e-06
0.002661
4.48488e-06
0.00253874
4.07429e-06
0.00242313
6.16828e-06
0.00231359
9.73466e-06
0.00219706
2.21208e-06
0.00207607
-1.68369e-06
0.00198096
1.1044e-06
0.0019124
3.30089e-06
0.0018342
5.90988e-06
0.00174232
9.63723e-06
0.00166165
1.54133e-05
0.00158586
1.54986e-05
0.00151777
1.11046e-05
0.00145621
4.68836e-06
0.00131807
1.9183e-06
0.00124717
4.12395e-06
0.00126204
4.75938e-06
0.00123831
9.43723e-06
0.00116022
7.57359e-06
0.00113836
4.25949e-06
0.0010289
1.13423e-06
0.000890906
1.0834e-06
0.000934142
1.02469e-06
0.000949915
-3.68004e-07
0.000783121
-2.04767e-06
0.000828571
-4.42731e-06
0.000837999
-3.88616e-06
0.000752916
0.000700184
7.11567e-07
0.000665099
-2.72244e-07
0.000777685
-6.91639e-07
0.000824194
1.08541e-06
0.000828653
1.62397e-06
0.000777919
3.56057e-07
0.00096046
-3.72442e-07
0.000942401
-1.26232e-06
0.000889878
-5.02825e-06
0.00101206
-8.52533e-06
0.00115019
-6.15566e-06
0.00115509
-6.59115e-07
0.00122456
1.77733e-06
0.00125771
-2.43762e-07
0.0012543
-3.39612e-06
0.00131708
-7.9599e-06
0.00144861
-1.06634e-05
0.00151586
-8.73974e-06
0.00157252
-4.73774e-06
0.00164269
-3.01899e-06
0.00172509
5.35887e-07
0.00181374
1.3535e-06
0.00189635
-1.62358e-06
0.00196392
-5.00007e-06
0.00205462
-5.19832e-06
0.00216998
-3.50515e-06
0.00228776
-2.69335e-06
0.00239146
-1.60062e-06
0.00250205
-1.33576e-06
0.0026237
-1.14538e-06
0.00274756
-1.24584e-06
0.00287754
-1.48826e-06
0.00301809
-8.58321e-07
0.00316384
-4.7785e-07
0.00331605
-8.79787e-07
0.00347602
-6.32771e-07
0.00364436
-8.00533e-07
0.00381913
-1.07533e-06
0.00400251
-9.94507e-07
0.00419297
-9.97106e-07
0.00439731
-6.21e-07
0.00460592
-1.3617e-07
0.00482876
-3.1071e-07
0.00505772
-4.73636e-07
0.00530658
9.97671e-08
0.00555816
3.93926e-07
0.0058274
-1.16672e-07
0.00610837
3.64376e-08
0.00640408
-1.27173e-07
0.00671316
-9.17655e-08
0.0070351
-3.71185e-09
0.00703208
1.00302e-07
0.00671192
2.71209e-07
0.00640095
-1.94369e-07
0.00611283
-1.25441e-07
0.00582784
6.5316e-07
0.00555783
8.83781e-07
0.00530212
9.23742e-07
0.00506173
7.318e-07
0.00483155
6.12149e-07
0.00460998
2.57373e-07
0.00439828
-7.88584e-08
0.00419595
-3.65125e-07
0.00400276
3.72745e-07
0.00381592
1.03571e-06
0.0036417
1.09569e-06
0.00347115
1.55218e-06
0.00331471
1.70314e-06
0.00316567
1.9119e-06
0.0030129
1.93677e-06
0.00287895
2.12308e-06
0.00274825
1.65359e-06
0.00262578
2.45753e-06
0.00250407
3.3348e-06
0.00238841
5.02146e-06
0.00228631
6.09964e-06
0.00216858
1.88244e-06
0.00205934
-1.5267e-06
0.00196419
1.32768e-06
0.00188947
4.2395e-06
0.0018141
3.06939e-06
0.00172399
6.27277e-06
0.00164352
1.11248e-05
0.00156728
1.0835e-05
0.0015073
5.5873e-06
0.00144946
1.67471e-06
0.00131487
2.5439e-07
0.0012464
6.55346e-07
0.00125585
4.41325e-06
0.00123194
8.78737e-06
0.00115386
7.29079e-06
0.00113988
3.0343e-06
0.00102819
1.55531e-06
0.000891007
-4.98701e-07
0.000933026
-7.86129e-08
0.000947465
1.60303e-07
0.000780842
-4.16647e-07
0.000826552
-7.58308e-07
0.000837776
-3.48934e-06
0.000753323
0.000694676
-1.6387e-06
0.00067059
1.61424e-06
0.000774534
-9.60335e-07
0.000830166
2.02142e-07
0.000829254
6.9677e-07
0.000773026
-1.8146e-06
0.000964462
-1.52551e-06
0.00094484
-6.20587e-06
0.000896557
-8.86338e-06
0.0010163
-5.32765e-06
0.00114105
-3.23521e-06
0.0011572
-4.59863e-06
0.00123269
-1.5886e-06
0.00125949
-2.98366e-06
0.00125925
-7.15082e-06
0.00132636
-1.10928e-05
0.00146158
-1.19513e-05
0.00152802
-8.24853e-06
0.00158394
-6.03544e-06
0.00165596
-2.83673e-06
0.00174207
1.96808e-07
0.00182891
-2.35536e-07
0.001917
-2.55241e-06
0.00198371
-5.19041e-06
0.00207325
-5.03379e-06
0.00219757
-4.90843e-06
0.00231491
-3.21351e-06
0.00241988
-1.67713e-06
0.00253509
-2.29376e-06
0.00266152
-2.23557e-06
0.00278579
-6.56237e-07
0.00291557
-1.19152e-06
0.0030611
-1.35299e-06
0.00320864
1.82863e-07
0.00335961
-7.84227e-07
0.00352808
-1.75775e-06
0.00369632
-1.09704e-06
0.00387158
-9.45164e-07
0.00405801
-1.03871e-06
0.00425205
-9.28222e-07
0.00445818
1.71637e-07
0.00467053
-2.7552e-07
0.00489584
-8.08783e-07
0.0051308
-1.61469e-07
0.00537945
8.84159e-09
0.00563791
5.11779e-07
0.00590691
5.15404e-07
0.00619567