/*--------------------------------*- C++ -*----------------------------------*\
| =========                 |                                                 |
| \\      /  F ield         | OpenFOAM: The Open Source CFD Toolbox           |
|  \\    /   O peration     | Version:  2312                                  |
|   \\  /    A nd           | Website:  www.openfoam.com                      |
|    \\/     M anipulation  |                                                 |
\*---------------------------------------------------------------------------*/
FoamFile
{
    version     2.0;
    format      ascii;
    arch        "LSB;label=32;scalar=64";
    class       volVectorField;
    location    "1";
    object      U.air;
}
// * * * * * * * * * * * * * * * * * * * * * * * * * * * * * * * * * * * * * //

dimensions      [0 1 -1 0 0 0 0];

internalField   nonuniform List<vector> 
50000
(
(0.00274422 0.12246 0)
(-0.00505582 0.124108 0)
(0.00502675 0.120895 0)
(-0.00384909 0.119124 0)
(0.000680058 0.120819 0)
(0.00321266 0.12299 0)
(-0.00765191 0.11361 0)
(0.0020623 0.122613 0)
(0.0117338 0.122834 0)
(0.00648578 0.118905 0)
(-0.00423707 0.119852 0)
(0.00318955 0.117397 0)
(-0.00849986 0.111502 0)
(-0.000278637 0.120782 0)
(0.0125109 0.120558 0)
(0.0127155 0.110412 0)
(0.00607945 0.11147 0)
(0.00259085 0.0989408 0)
(0.00184553 0.100845 0)
(0.00322086 0.0908937 0)
(-0.00140042 0.0998652 0)
(-0.0044023 0.100694 0)
(-0.00646911 0.102948 0)
(0.00300257 0.106913 0)
(0.00656682 0.0890755 0)
(0.00262619 0.093734 0)
(0.0012763 0.0894508 0)
(0.000730766 0.0846417 0)
(0.000410617 0.0847058 0)
(-0.00048741 0.0843218 0)
(-0.000350473 0.0848407 0)
(0.00032086 0.0836342 0)
(9.10532e-05 0.0839309 0)
(-0.000269421 0.0831978 0)
(-7.14143e-05 0.0832721 0)
(-3.03696e-05 0.0831668 0)
(-0.000189926 0.084199 0)
(-0.000518045 0.0829205 0)
(-0.000224816 0.083646 0)
(3.31681e-05 0.082788 0)
(-0.000183912 0.0827604 0)
(-0.000219183 0.0827679 0)
(-0.000111505 0.0827393 0)
(8.33042e-06 0.0827559 0)
(-9.96888e-05 0.0824926 0)
(3.29172e-05 0.0827198 0)
(2.35376e-05 0.0824999 0)
(3.98942e-05 0.0825975 0)
(2.38536e-05 0.0827702 0)
(-4.71351e-05 0.0826401 0)
(2.96054e-05 0.0825374 0)
(1.36124e-05 0.0826601 0)
(1.91031e-05 0.0825594 0)
(6.96678e-05 0.0827901 0)
(-8.35484e-06 0.082586 0)
(7.98755e-05 0.0827107 0)
(0.000114127 0.0826571 0)
(0.000175937 0.082652 0)
(0.000151946 0.0828511 0)
(0.000122917 0.0830346 0)
(-2.49516e-05 0.0827523 0)
(0.000112265 0.0831114 0)
(0.000180085 0.0827401 0)
(5.97931e-05 0.0843227 0)
(-0.000556296 0.0827054 0)
(3.06596e-06 0.086159 0)
(0.000856259 0.083005 0)
(-0.000440649 0.0843513 0)
(1.09375e-05 0.0858008 0)
(0.000937469 0.0841185 0)
(0.000461491 0.0847437 0)
(-5.46089e-05 0.0851566 0)
(-0.000513602 0.0845559 0)
(-0.00103884 0.0868517 0)
(-0.00168345 0.0925533 0)
(-0.00556215 0.0875169 0)
(-0.0037751 0.105568 0)
(0.00586541 0.103968 0)
(0.00493824 0.0990085 0)
(0.00188925 0.0998222 0)
(-0.00261071 0.0903964 0)
(-0.00196718 0.100509 0)
(-0.0026577 0.0976285 0)
(-0.00605747 0.110988 0)
(-0.0119541 0.110893 0)
(-0.0123296 0.120598 0)
(-0.000554408 0.121062 0)
(0.00942224 0.111444 0)
(-0.00210368 0.114318 0)
(0.00384611 0.119772 0)
(-0.00466958 0.119294 0)
(-0.0130255 0.121958 0)
(-0.00112411 0.123098 0)
(0.00968471 0.113267 0)
(-0.00339284 0.122238 0)
(0.00239604 0.121868 0)
(0.00895805 0.11907 0)
(-0.00321604 0.121608 0)
(0.004718 0.113445 0)
(-0.00012897 0.111696 0)
(0.00748395 0.247444 0)
(0.0099656 0.254374 0)
(-0.0125885 0.257203 0)
(-0.0165748 0.25452 0)
(0.0065061 0.243571 0)
(-0.00356779 0.263934 0)
(-0.0257723 0.258071 0)
(0.000824504 0.237209 0)
(0.0141724 0.242771 0)
(0.024687 0.260888 0)
(0.0142378 0.25927 0)
(-0.0124692 0.260541 0)
(-0.0242859 0.261536 0)
(-0.00580633 0.24159 0)
(0.0124468 0.24408 0)
(0.0257012 0.256839 0)
(0.00797742 0.259125 0)
(-0.00513415 0.253992 0)
(-1.69497e-05 0.255936 0)
(0.00333459 0.254662 0)
(0.0017079 0.254385 0)
(-0.00821122 0.253401 0)
(-0.0100205 0.252616 0)
(0.00210147 0.251616 0)
(0.00817488 0.253559 0)
(0.0042485 0.253268 0)
(-0.00070128 0.252804 0)
(-0.000252476 0.253529 0)
(0.000527873 0.253179 0)
(-0.000960705 0.25315 0)
(-0.000768114 0.252938 0)
(0.000513842 0.253098 0)
(0.000155216 0.253075 0)
(-0.000520912 0.253046 0)
(-0.000115169 0.253124 0)
(0.000297404 0.25303 0)
(-0.00024411 0.252984 0)
(-0.000940676 0.253042 0)
(-0.000298894 0.252997 0)
(3.65831e-05 0.253047 0)
(-0.000234934 0.253056 0)
(-0.000295794 0.253005 0)
(-0.000130898 0.252972 0)
(3.16696e-06 0.253036 0)
(-0.00013151 0.253038 0)
(4.84309e-05 0.253 0)
(1.31356e-05 0.253036 0)
(7.98352e-05 0.253046 0)
(3.96188e-05 0.253041 0)
(-8.03738e-05 0.253042 0)
(3.71211e-05 0.25302 0)
(1.70979e-05 0.253034 0)
(3.44142e-05 0.25303 0)
(8.32832e-05 0.253043 0)
(-2.22951e-05 0.253048 0)
(0.000101127 0.252986 0)
(0.000130209 0.253004 0)
(0.000239775 0.253019 0)
(0.000238359 0.253048 0)
(0.000143717 0.253042 0)
(-5.50014e-05 0.253043 0)
(0.000129661 0.253056 0)
(0.00054851 0.253058 0)
(3.44611e-05 0.253011 0)
(-0.000885715 0.25307 0)
(6.49838e-05 0.252737 0)
(0.001176 0.253134 0)
(-0.000428739 0.253072 0)
(-0.000178381 0.25275 0)
(0.00146435 0.253093 0)
(0.00105251 0.253152 0)
(-0.00018199 0.253048 0)
(-0.000211532 0.253503 0)
(0.000784687 0.253043 0)
(-0.00273984 0.253176 0)
(-0.0069 0.253839 0)
(-0.00266994 0.251672 0)
(0.00862002 0.252202 0)
(0.00863335 0.253064 0)
(-0.000207459 0.254381 0)
(-0.00272732 0.25456 0)
(-0.000219477 0.25556 0)
(0.00474234 0.254072 0)
(-0.00600609 0.258672 0)
(-0.0247481 0.256678 0)
(-0.0126368 0.244667 0)
(0.00550089 0.240681 0)
(0.0252377 0.260635 0)
(0.0158152 0.264753 0)
(-0.0101728 0.259729 0)
(-0.0218436 0.261678 0)
(-0.0174997 0.245223 0)
(-0.000669518 0.234995 0)
(0.0268584 0.258607 0)
(0.00126521 0.26379 0)
(-0.00626931 0.240965 0)
(0.0229147 0.251651 0)
(0.0184807 0.256708 0)
(-0.00346494 0.259865 0)
(0.000843866 0.257941 0)
(-0.0048993 0.242805 0)
(0.00362323 0.261448 0)
(-0.00921233 0.262632 0)
(-0.0105022 0.238586 0)
(-0.00427028 0.242546 0)
(0.00163037 0.268031 0)
(-0.016616 0.235947 0)
(-0.000609675 0.23434 0)
(0.00968103 0.239422 0)
(0.00925217 0.248786 0)
(0.00590911 0.262289 0)
(-0.00892455 0.266794 0)
(-0.0094044 0.23029 0)
(-0.008111 0.23792 0)
(0.00631442 0.237609 0)
(0.00770906 0.235507 0)
(0.001338 0.246072 0)
(0.00201671 0.21509 0)
(-0.000950635 0.212927 0)
(-0.00415773 0.204929 0)
(-0.0019296 0.214513 0)
(-0.00531908 0.218053 0)
(-0.00492047 0.217335 0)
(0.00111289 0.22333 0)
(0.00356218 0.2053 0)
(0.00138104 0.2106 0)
(0.000515201 0.207185 0)
(0.000440344 0.202263 0)
(-0.000381246 0.202748 0)
(-0.000242558 0.202653 0)
(-0.000162122 0.202705 0)
(-0.000120079 0.20184 0)
(-0.000253682 0.202379 0)
(-0.000157476 0.201601 0)
(-0.00012586 0.201463 0)
(-0.00041325 0.201586 0)
(-0.000309182 0.202552 0)
(-0.000450193 0.201352 0)
(-0.00027823 0.201853 0)
(-0.000264921 0.201336 0)
(-0.000267009 0.201248 0)
(-0.000335062 0.201245 0)
(-0.00015051 0.201195 0)
(-6.62894e-06 0.201265 0)
(-0.00015498 0.201017 0)
(4.41012e-05 0.201223 0)
(3.93257e-05 0.201023 0)
(8.30695e-05 0.201157 0)
(3.72488e-05 0.201322 0)
(-9.16006e-05 0.201199 0)
(4.44633e-05 0.201055 0)
(2.56966e-05 0.201164 0)
(4.8892e-05 0.201076 0)
(0.000108944 0.201306 0)
(-4.3699e-05 0.201125 0)
(0.00010041 0.201189 0)
(0.000169718 0.201137 0)
(0.000291722 0.201136 0)
(0.000264836 0.201376 0)
(0.00015299 0.201537 0)
(0.000135108 0.201237 0)
(9.91181e-05 0.201403 0)
(0.00012493 0.201201 0)
(0.00010439 0.202639 0)
(-4.0059e-06 0.201154 0)
(5.69623e-05 0.2037 0)
(0.000613145 0.201385 0)
(6.30391e-05 0.202739 0)
(0.000444121 0.20348 0)
(0.000701194 0.202094 0)
(0.000224866 0.203008 0)
(0.000707066 0.203413 0)
(-0.000308083 0.20213 0)
(-0.000489541 0.204762 0)
(-0.000334206 0.20967 0)
(-0.00267386 0.204588 0)
(-0.00163102 0.221457 0)
(0.00488431 0.219148 0)
(0.00568886 0.215456 0)
(0.00237535 0.214621 0)
(0.00394386 0.205215 0)
(0.00197808 0.212643 0)
(-0.00244651 0.213556 0)
(-0.000207698 0.244577 0)
(-0.00722391 0.237098 0)
(-0.00570091 0.237062 0)
(0.00847855 0.238384 0)
(0.0108501 0.229504 0)
(0.0102434 0.262 0)
(-0.00277892 0.262749 0)
(-0.00807486 0.252345 0)
(-0.00953281 0.239953 0)
(-9.49015e-05 0.232638 0)
(0.0161851 0.23654 0)
(-0.00111728 0.266863 0)
(0.00192654 0.239075 0)
(0.0102746 0.239687 0)
(0.000843413 0.263791 0)
(-0.00753563 0.24978 0)
(0.00529308 0.232702 0)
(-0.00890295 0.273581 0)
(0.00201925 0.292154 0)
(-0.00268663 0.296992 0)
(-0.00581812 0.275946 0)
(-0.00650884 0.258508 0)
(0.00782351 0.295759 0)
(-0.00796287 0.280086 0)
(0.000942209 0.247728 0)
(0.0121073 0.260239 0)
(0.00561966 0.28301 0)
(-0.00269454 0.301281 0)
(-0.00217673 0.291601 0)
(-0.00695073 0.282831 0)
(-0.00831493 0.261847 0)
(0.00634503 0.262137 0)
(-0.00114148 0.285596 0)
(0.00126611 0.289854 0)
(0.0177078 0.29226 0)
(0.00292462 0.287578 0)
(-0.0106088 0.289909 0)
(-0.00224443 0.289962 0)
(-0.00323039 0.289046 0)
(-0.00516941 0.283435 0)
(0.00151347 0.280692 0)
(0.00403399 0.289802 0)
(0.00105683 0.290071 0)
(0.00112517 0.289876 0)
(0.000936384 0.290457 0)
(-0.000713958 0.290146 0)
(-0.000393645 0.290221 0)
(3.8466e-05 0.289936 0)
(-0.000177798 0.29025 0)
(-0.000305954 0.290276 0)
(-7.85716e-05 0.290227 0)
(5.57851e-05 0.290332 0)
(-0.000535159 0.290242 0)
(-0.000464223 0.290136 0)
(-0.000413333 0.290258 0)
(-0.000300148 0.290165 0)
(-0.000256998 0.290308 0)
(-0.000301934 0.290338 0)
(-0.000320246 0.290216 0)
(-0.000158747 0.29017 0)
(-7.21306e-06 0.290295 0)
(-0.000160223 0.290334 0)
(6.05e-05 0.290225 0)
(2.56494e-05 0.290322 0)
(0.000101692 0.290332 0)
(4.27381e-05 0.290353 0)
(-9.68256e-05 0.290321 0)
(5.00134e-05 0.290285 0)
(2.3389e-05 0.290291 0)
(4.79525e-05 0.290302 0)
(0.00011036 0.290324 0)
(-3.91373e-05 0.290347 0)
(0.000110611 0.29018 0)
(0.000180299 0.29023 0)
(0.000298685 0.290238 0)
(0.000267673 0.290365 0)
(0.000180697 0.290289 0)
(0.00013119 0.290333 0)
(8.93479e-05 0.29025 0)
(3.25003e-05 0.290346 0)
(0.000223022 0.290079 0)
(4.68725e-05 0.290313 0)
(-6.23227e-05 0.289442 0)
(0.000620356 0.290317 0)
(4.21994e-05 0.290249 0)
(0.000496286 0.289545 0)
(0.00060361 0.290173 0)
(0.000362834 0.290281 0)
(0.00114576 0.290088 0)
(-0.000864644 0.290381 0)
(-0.00111182 0.290256 0)
(0.000402136 0.29012 0)
(-0.00302547 0.290581 0)
(-0.00228229 0.281715 0)
(0.0053051 0.282658 0)
(0.00389223 0.289248 0)
(0.00223434 0.290143 0)
(0.0105204 0.290023 0)
(-0.00155147 0.287635 0)
(-0.0183341 0.291825 0)
(-0.00132436 0.290088 0)
(0.00121775 0.285687 0)
(-0.00522697 0.262099 0)
(0.00845639 0.260678 0)
(0.00808336 0.282004 0)
(0.00447427 0.292897 0)
(0.00319168 0.302007 0)
(-0.00438693 0.285284 0)
(-0.011216 0.262636 0)
(-0.000897128 0.24686 0)
(0.00874812 0.280125 0)
(-0.00625444 0.297205 0)
(0.00735933 0.256252 0)
(0.00710893 0.277931 0)
(0.000732105 0.298764 0)
(0.00496772 0.286108 0)
(0.0123097 0.283157 0)
(-0.00443713 0.269461 0)
(0.00480419 0.277659 0)
(0.00121007 0.293809 0)
(0.000568977 0.262101 0)
(-0.00314517 0.25174 0)
(0.00809857 0.293554 0)
(-0.00536976 0.256587 0)
(0.00335651 0.24345 0)
(0.0054886 0.253555 0)
(-0.000913294 0.27545 0)
(-0.00426294 0.296641 0)
(-0.00122355 0.292269 0)
(-0.00303596 0.255028 0)
(-0.0053804 0.251928 0)
(-0.00190349 0.255306 0)
(-0.00445607 0.262083 0)
(-0.00335557 0.262997 0)
(-0.000157598 0.245274 0)
(-0.00178088 0.254458 0)
(-0.00359586 0.239942 0)
(-0.00147521 0.244791 0)
(-0.0027484 0.253227 0)
(-0.00118444 0.246375 0)
(-0.000735166 0.248125 0)
(-0.000304693 0.238156 0)
(0.00022505 0.245457 0)
(-0.000308677 0.241426 0)
(4.77667e-05 0.23591 0)
(-0.000653446 0.236928 0)
(-0.000193834 0.236287 0)
(-0.000204588 0.236014 0)
(-0.000358665 0.235528 0)
(-0.00031522 0.236192 0)
(-0.000226757 0.235596 0)
(-0.000213628 0.235294 0)
(-0.000423201 0.235822 0)
(-0.000302896 0.236506 0)
(-0.000333526 0.235398 0)
(-0.000268253 0.235616 0)
(-0.000429799 0.235375 0)
(-0.000293404 0.235324 0)
(-0.000336115 0.235383 0)
(-0.00017562 0.235311 0)
(-1.64502e-05 0.235354 0)
(-0.000160743 0.235131 0)
(5.22344e-05 0.235353 0)
(4.14639e-05 0.235149 0)
(0.000114427 0.235222 0)
(3.18965e-05 0.235402 0)
(-0.000114286 0.235272 0)
(4.61562e-05 0.2352 0)
(3.1459e-05 0.235281 0)
(7.41253e-05 0.235197 0)
(0.000125013 0.235388 0)
(-7.3908e-05 0.235196 0)
(0.000117542 0.235335 0)
(0.000165444 0.235272 0)
(0.000373011 0.235252 0)
(0.000308694 0.235435 0)
(0.000160824 0.235568 0)
(0.000183432 0.235344 0)
(7.0312e-05 0.235321 0)
(1.28361e-05 0.235238 0)
(6.47659e-05 0.236596 0)
(0.000329099 0.235273 0)
(0.000117832 0.236931 0)
(0.000443101 0.235341 0)
(0.000351718 0.236664 0)
(0.00052638 0.236824 0)
(0.000591475 0.235637 0)
(0.000311051 0.236693 0)
(0.000911594 0.237687 0)
(3.60694e-05 0.23607 0)
(0.000446755 0.238799 0)
(0.000463561 0.244665 0)
(0.000806728 0.237795 0)
(0.00110699 0.247269 0)
(0.00155852 0.247063 0)
(0.00273133 0.250646 0)
(0.00151439 0.245252 0)
(0.00379595 0.240116 0)
(0.00260598 0.254879 0)
(0.000582862 0.24373 0)
(0.00377253 0.261675 0)
(0.00491782 0.263602 0)
(0.00221776 0.254944 0)
(0.00662986 0.252716 0)
(0.00503934 0.252347 0)
(0.00310955 0.291949 0)
(0.00452531 0.29754 0)
(0.00228443 0.27909 0)
(-0.00413478 0.254413 0)
(-0.00369102 0.241664 0)
(0.00467853 0.256444 0)
(-0.00563886 0.291221 0)
(0.00408997 0.249714 0)
(-0.000899175 0.266239 0)
(0.00165243 0.289849 0)
(-0.00346443 0.260269 0)
(0.00620801 0.277924 0)
(0.00069829 0.275553 0)
(0.00473085 0.288452 0)
(0.000797725 0.29912 0)
(0.00217032 0.285886 0)
(-0.00253576 0.255904 0)
(0.00882555 0.299587 0)
(-0.0040374 0.28584 0)
(0.00138664 0.248483 0)
(0.00316307 0.265816 0)
(-0.00412541 0.29099 0)
(-0.00512534 0.300115 0)
(0.00593304 0.299876 0)
(0.000379934 0.289138 0)
(-0.00684641 0.265705 0)
(-2.3411e-05 0.26607 0)
(-0.00329723 0.289383 0)
(0.00367003 0.29263 0)
(0.00116411 0.293211 0)
(-0.00280738 0.293521 0)
(0.00198142 0.295413 0)
(-0.00340254 0.294033 0)
(-0.00293066 0.294034 0)
(-0.000625407 0.286929 0)
(9.51627e-05 0.283758 0)
(0.000648089 0.294106 0)
(-0.000302027 0.294658 0)
(0.000896993 0.294384 0)
(0.000513102 0.294845 0)
(-0.000669144 0.294654 0)
(-6.43863e-05 0.294573 0)
(-5.31874e-05 0.2943 0)
(-0.000370988 0.294606 0)
(-0.000335068 0.294694 0)
(-0.000181153 0.294649 0)
(-0.000306445 0.294878 0)
(-0.000678793 0.294728 0)
(-0.000332796 0.294736 0)
(-0.000188081 0.294711 0)
(-0.000274731 0.294669 0)
(-0.000388888 0.294752 0)
(-0.000321424 0.294848 0)
(-0.000326848 0.294674 0)
(-0.000164489 0.294643 0)
(-9.31989e-07 0.294779 0)
(-0.000159612 0.294848 0)
(5.94257e-05 0.294676 0)
(3.16765e-05 0.294844 0)
(0.000114816 0.294807 0)
(3.17286e-05 0.294866 0)
(-0.000110015 0.294785 0)
(5.55664e-05 0.29479 0)
(2.93358e-05 0.294782 0)
(5.69731e-05 0.294816 0)
(0.00011709 0.294848 0)
(-6.59256e-05 0.294848 0)
(0.000114974 0.294631 0)
(0.00017677 0.294683 0)
(0.000350073 0.294717 0)
(0.000282546 0.294872 0)
(0.000208247 0.294817 0)
(0.000201925 0.294844 0)
(7.83581e-05 0.294798 0)
(-0.000194399 0.29486 0)
(0.000113974 0.294591 0)
(0.000388252 0.294773 0)
(0.000215008 0.293821 0)
(0.000554958 0.294778 0)
(0.000215475 0.294671 0)
(0.000631048 0.293781 0)
(0.000507918 0.294573 0)
(0.000115875 0.294687 0)
(0.00114079 0.294514 0)
(0.000284118 0.294879 0)
(-0.000512075 0.294707 0)
(0.000261192 0.294707 0)
(-0.000366508 0.29447 0)
(2.29772e-05 0.284885 0)
(0.00120148 0.285985 0)
(0.00307257 0.294173 0)
(0.00253056 0.294258 0)
(-0.00158738 0.295244 0)
(0.00382702 0.293649 0)
(-0.000291063 0.292709 0)
(-0.00393604 0.292658 0)
(0.00347477 0.289623 0)
(0.000808073 0.265925 0)
(0.00818024 0.263389 0)
(0.00116672 0.287941 0)
(-0.00427932 0.297455 0)
(0.00462146 0.300376 0)
(0.00495435 0.292377 0)
(-0.00196345 0.269516 0)
(-0.00155679 0.248547 0)
(0.0036167 0.28378 0)
(-0.00639461 0.297808 0)
(0.00407444 0.255552 0)
(-0.00277763 0.285094 0)
(0.00556799 0.298337 0)
(-0.00721743 0.282818 0)
(-0.00191223 0.290112 0)
(0.000522065 0.268739 0)
(0.00452925 0.287264 0)
(-0.0011267 0.297602 0)
(0.00245522 0.272631 0)
(-0.0015451 0.250767 0)
(0.00536173 0.297383 0)
(-0.00274319 0.267891 0)
(0.00234967 0.247379 0)
(-0.000306895 0.262125 0)
(-0.00557012 0.287408 0)
(-0.00469627 0.291226 0)
(0.0019094 0.291695 0)
(0.000117396 0.271195 0)
(-0.00237452 0.259269 0)
(-0.00402428 0.260802 0)
(-0.00542944 0.26882 0)
(-0.00407116 0.26479 0)
(-0.00442561 0.260771 0)
(-0.0040629 0.269628 0)
(-0.00102295 0.255502 0)
(-0.00136852 0.259049 0)
(-0.00089255 0.264802 0)
(0.000751089 0.257392 0)
(-0.00137607 0.257973 0)
(-0.00284581 0.253209 0)
(-0.000850766 0.259206 0)
(-0.00101972 0.255774 0)
(-0.000538586 0.252132 0)
(-0.000578104 0.252921 0)
(-0.000301768 0.251786 0)
(-0.000358812 0.251765 0)
(-0.000386778 0.251491 0)
(-0.000255617 0.251987 0)
(-0.000271712 0.251531 0)
(-0.000261027 0.251396 0)
(-0.000438663 0.251859 0)
(-0.000316787 0.252243 0)
(-0.00031437 0.251484 0)
(-0.000238019 0.251564 0)
(-0.000473726 0.251502 0)
(-0.000313146 0.25141 0)
(-0.000287148 0.251537 0)
(-0.000150003 0.251473 0)
(-1.31675e-05 0.251489 0)
(-0.000163164 0.25129 0)
(6.61318e-05 0.251485 0)
(2.70131e-05 0.251324 0)
(0.000120416 0.25137 0)
(2.29942e-05 0.251523 0)
(-0.000117078 0.251428 0)
(4.70718e-05 0.251366 0)
(2.58494e-05 0.251453 0)
(9.46193e-05 0.251357 0)
(0.000113728 0.251517 0)
(-9.5812e-05 0.251324 0)
(0.000122378 0.251539 0)
(0.000152852 0.2514 0)
(0.000413159 0.251466 0)
(0.000318808 0.251482 0)
(0.000146491 0.251714 0)
(0.000177707 0.251456 0)
(4.8652e-05 0.251515 0)
(-3.89674e-05 0.2513 0)
(1.69763e-06 0.252429 0)
(0.000568698 0.25135 0)
(0.000157015 0.25251 0)
(0.000367122 0.251341 0)
(0.00044307 0.252496 0)
(0.000441978 0.252226 0)
(0.0006765 0.251661 0)
(0.000550675 0.252024 0)
(0.00087764 0.253392 0)
(0.000684843 0.252392 0)
(0.00134253 0.253656 0)
(0.000702264 0.258411 0)
(0.00296934 0.253459 0)
(0.00265539 0.257299 0)
(-0.000452231 0.257554 0)
(0.0006196 0.263173 0)
(0.00137145 0.259336 0)
(0.00121821 0.254737 0)
(0.00453133 0.270113 0)
(0.00505549 0.260693 0)
(0.00418432 0.263471 0)
(0.00594531 0.269522 0)
(0.00424564 0.259613 0)
(0.00354176 0.259993 0)
(0.00141386 0.267769 0)
(-0.00108672 0.291856 0)
(0.00451745 0.292693 0)
(0.00660833 0.288971 0)
(0.0012766 0.263799 0)
(-0.00279172 0.245733 0)
(0.00248838 0.266019 0)
(-0.00338199 0.294058 0)
(0.00377453 0.251258 0)
(-0.00339842 0.271433 0)
(0.00487671 0.303928 0)
(-0.00726689 0.277608 0)
(0.00189775 0.273093 0)
(0.00125328 0.260989 0)
(0.00332531 0.292217 0)
(0.000283108 0.299221 0)
(0.00303495 0.286614 0)
(-0.00269788 0.253401 0)
(0.00536234 0.299196 0)
(-0.0012044 0.286998 0)
(2.66302e-05 0.249352 0)
(-0.000187959 0.271888 0)
(-0.0053173 0.293547 0)
(-0.00373857 0.293286 0)
(0.00421135 0.294744 0)
(0.00150039 0.29027 0)
(-0.00164834 0.269044 0)
(-0.00067016 0.267715 0)
(-0.00134461 0.288185 0)
(-0.00173125 0.289976 0)
(-0.0058653 0.292622 0)
(-0.000966604 0.292971 0)
(0.00197406 0.293277 0)
(-0.00375352 0.293004 0)
(-0.00056851 0.292252 0)
(0.000812749 0.285365 0)
(-0.000155919 0.28351 0)
(-0.00179627 0.292449 0)
(-0.00156599 0.293035 0)
(0.000163651 0.292713 0)
(8.98885e-05 0.293231 0)
(-0.000441965 0.293063 0)
(-0.000150225 0.292899 0)
(-0.000365106 0.292696 0)
(-0.000425556 0.292979 0)
(-0.000258625 0.293058 0)
(-0.000222852 0.293012 0)
(-0.000294113 0.293259 0)
(-0.000543647 0.293158 0)
(-8.25365e-05 0.293135 0)
(-6.49355e-05 0.29312 0)
(-0.000259329 0.293099 0)
(-0.000393502 0.293134 0)
(-0.000280791 0.293236 0)
(-0.000303213 0.293031 0)
(-0.000156458 0.293009 0)
(-2.91097e-07 0.293165 0)
(-0.000162485 0.293242 0)
(8.34744e-05 0.293038 0)
(2.33463e-05 0.293246 0)
(0.000111662 0.293201 0)
(2.19759e-05 0.293303 0)
(-0.000110795 0.293167 0)
(5.64059e-05 0.293179 0)
(1.28011e-05 0.293165 0)
(7.51189e-05 0.293232 0)
(0.000102823 0.293271 0)
(-8.83682e-05 0.293296 0)
(0.000116798 0.292965 0)
(0.00017238 0.293083 0)
(0.000349671 0.293084 0)
(0.000311416 0.293388 0)
(0.000198657 0.293243 0)
(0.000186565 0.293351 0)
(0.000100271 0.293232 0)
(-0.000323584 0.293394 0)
(-0.000234223 0.292881 0)
(0.000500537 0.293266 0)
(0.000197782 0.292229 0)
(0.000428396 0.29315 0)
(0.000239511 0.293065 0)
(0.000575712 0.292156 0)
(0.000846281 0.292896 0)
(0.000404006 0.293074 0)
(0.000802439 0.292899 0)
(0.000497517 0.293342 0)
(0.000392425 0.292816 0)
(0.000927878 0.292796 0)
(0.00165502 0.292485 0)
(0.00103107 0.284454 0)
(-0.000613122 0.284955 0)
(0.00048266 0.292198 0)
(0.00312868 0.292919 0)
(-0.00177252 0.293073 0)
(0.00183277 0.293008 0)
(0.00657141 0.292358 0)
(0.00171396 0.290008 0)
(0.00197762 0.288227 0)
(0.00117412 0.267659 0)
(0.00327645 0.265775 0)
(-0.000413619 0.289527 0)
(-0.00407462 0.295013 0)
(0.00330755 0.293483 0)
(0.00611526 0.294033 0)
(0.00125388 0.276784 0)
(-0.00059377 0.250407 0)
(0.00118747 0.283273 0)
(-0.00353276 0.295945 0)
(0.00442975 0.255475 0)
(-0.0026364 0.283535 0)
(0.00292512 0.296229 0)
(-0.0047822 0.286799 0)
(0.00119851 0.283828 0)
(-0.000504801 0.261667 0)
(0.00149417 0.29072 0)
(-0.000508923 0.297345 0)
(0.00206482 0.277733 0)
(-0.000762633 0.250537 0)
(0.0018786 0.296834 0)
(-0.000682114 0.27392 0)
(0.0013201 0.250971 0)
(-0.00113395 0.267583 0)
(-0.00487522 0.291683 0)
(-0.00373735 0.285184 0)
(0.000904379 0.289562 0)
(0.000630712 0.278703 0)
(8.01985e-05 0.262898 0)
(-0.00375365 0.263412 0)
(-0.00510894 0.272961 0)
(-0.00535471 0.270836 0)
(-0.00610592 0.268053 0)
(-0.00301219 0.270826 0)
(-0.00109381 0.265355 0)
(-0.00101754 0.268194 0)
(0.000467436 0.268399 0)
(0.000614961 0.263596 0)
(-0.00182274 0.263816 0)
(-0.00334397 0.262372 0)
(-0.00134415 0.26608 0)
(-0.00145775 0.263414 0)
(-0.000786539 0.261916 0)
(-0.000436786 0.262324 0)
(-0.000486189 0.26141 0)
(-0.000426633 0.26122 0)
(-0.000345714 0.261296 0)
(-0.000413582 0.261457 0)
(-0.000193594 0.261337 0)
(-0.000207175 0.261097 0)
(-0.000347294 0.261547 0)
(-0.000217037 0.261495 0)
(-0.00042155 0.261393 0)
(-0.000298282 0.261158 0)
(-0.000442576 0.261393 0)
(-0.000286404 0.261178 0)
(-0.0002396 0.261373 0)
(-0.000116562 0.261146 0)
(-0.000148154 0.261341 0)
(-0.000140461 0.261089 0)
(0.00018107 0.261308 0)
(-2.36886e-05 0.261135 0)
(8.66958e-05 0.261227 0)
(3.57632e-05 0.261308 0)
(-9.2997e-05 0.261304 0)
(3.61404e-05 0.261169 0)
(-3.47366e-05 0.261335 0)
(0.000131873 0.261177 0)
(0.000123162 0.261367 0)
(-0.000243666 0.261178 0)
(0.000132913 0.261378 0)
(0.000274622 0.261248 0)
(0.000417851 0.261326 0)
(0.000298142 0.26132 0)
(0.000218483 0.261476 0)
(0.000202767 0.261332 0)
(4.37906e-05 0.261367 0)
(7.96578e-06 0.261246 0)
(-0.000146949 0.261772 0)
(0.000513991 0.261132 0)
(0.000240614 0.261733 0)
(0.000306227 0.261236 0)
(0.000685636 0.261861 0)
(0.000388557 0.261445 0)
(0.000543616 0.261306 0)
(0.000763853 0.261474 0)
(0.000786186 0.262667 0)
(0.000711377 0.262064 0)
(0.00174189 0.262478 0)
(0.00117928 0.265769 0)
(0.00339497 0.262578 0)
(0.00312835 0.263202 0)
(-0.000857331 0.263675 0)
(-0.000728625 0.26762 0)
(0.00123806 0.268081 0)
(0.00132391 0.263855 0)
(0.00323969 0.271011 0)
(0.00644908 0.268647 0)
(0.00560957 0.269585 0)
(0.0057484 0.273092 0)
(0.00394915 0.261639 0)
(0.000603738 0.263517 0)
(0.000388446 0.276268 0)
(-0.00072936 0.29025 0)
(0.00350233 0.286459 0)
(0.00564913 0.291788 0)
(0.00231318 0.270158 0)
(-0.00143069 0.248969 0)
(0.000667587 0.270569 0)
(-0.000768072 0.293083 0)
(0.00232749 0.252458 0)
(-0.00201107 0.275749 0)
(0.000132145 0.290557 0)
(-0.00329648 0.281022 0)
(0.000677928 0.271695 0)
(4.38764e-05 0.272231 0)
(0.00111221 0.292168 0)
(0.00152326 0.299643 0)
(0.00228483 0.286272 0)
(-0.000920049 0.25341 0)
(0.00189805 0.299111 0)
(-0.000579542 0.285807 0)
(-0.00034568 0.252121 0)
(-0.0010554 0.275525 0)
(-0.00399641 0.295013 0)
(-0.00216019 0.288948 0)
(0.000374591 0.291376 0)
(0.00142049 0.288643 0)
(0.00107084 0.27123 0)
(-0.000676122 0.269671 0)
(-0.00227639 0.286787 0)
(-0.00364183 0.288717 0)
(-0.00487997 0.290186 0)
(-0.00188448 0.289174 0)
(-0.000269767 0.290577 0)
(-0.00124951 0.290689 0)
(0.000540432 0.289366 0)
(0.000230943 0.283774 0)
(-0.000738164 0.282652 0)
(-0.0021788 0.289597 0)
(-0.00126163 0.290417 0)
(-0.000675385 0.290012 0)
(-0.000982688 0.290294 0)
(-0.000333932 0.290438 0)
(-0.000376036 0.290092 0)
(-0.000450827 0.289969 0)
(-0.000356105 0.290134 0)
(-0.000293167 0.29032 0)
(-0.000128192 0.290094 0)
(-0.000232063 0.29054 0)
(-0.000468186 0.290254 0)
(-0.000315671 0.290406 0)
(-0.00035385 0.290249 0)
(-0.000230773 0.290377 0)
(-0.000393134 0.290254 0)
(-0.000275306 0.29045 0)
(-0.000290675 0.29012 0)
(-0.000175554 0.290234 0)
(1.48696e-05 0.290292 0)
(-0.000129885 0.290425 0)
(0.000110683 0.290174 0)
(1.06952e-05 0.290492 0)
(7.29903e-05 0.29035 0)
(8.37989e-06 0.290564 0)
(-8.18412e-05 0.290313 0)
(2.0756e-05 0.290407 0)
(-2.44654e-05 0.290298 0)
(0.000121704 0.290428 0)
(9.81164e-05 0.290485 0)
(-0.000151148 0.290513 0)
(9.38387e-05 0.29007 0)
(0.000171457 0.290276 0)
(0.000506879 0.290296 0)
(0.000274253 0.290627 0)
(9.55405e-05 0.290451 0)
(0.000185861 0.290568 0)
(7.5784e-05 0.290459 0)
(-4.16903e-05 0.290598 0)
(0.000106879 0.289999 0)
(0.000564403 0.290367 0)
(8.80117e-05 0.289579 0)
(0.00027156 0.290273 0)
(0.00046141 0.290275 0)
(0.000544278 0.28937 0)
(0.000677037 0.290024 0)
(0.000628093 0.290255 0)
(0.000731164 0.290309 0)
(0.000940157 0.290547 0)
(0.00106978 0.289982 0)
(0.00103564 0.290113 0)
(0.00228555 0.289239 0)
(0.00168419 0.283708 0)
(-0.000547006 0.283813 0)
(-0.000945682 0.289045 0)
(0.00156166 0.290314 0)
(0.000683321 0.290179 0)
(0.00194004 0.28925 0)
(0.00516966 0.289702 0)
(0.00377189 0.288683 0)
(0.00302372 0.28686 0)
(0.00086071 0.26988 0)
(-4.15734e-05 0.267437 0)
(-0.000437749 0.288187 0)
(-0.000386281 0.292469 0)
(0.0020939 0.288625 0)
(0.00495424 0.294517 0)
(0.00193715 0.281012 0)
(3.72766e-05 0.25259 0)
(0.000886603 0.28169 0)
(-0.00100085 0.296042 0)
(0.00210094 0.25637 0)
(-0.0013891 0.284647 0)
(-0.000812413 0.30371 0)
(-0.00118026 0.285884 0)
(0.000988606 0.280791 0)
(0.00170688 0.263205 0)
(0.00133098 0.289589 0)
(0.000735967 0.294776 0)
(0.00173963 0.281812 0)
(0.000147157 0.251725 0)
(-8.26874e-05 0.297907 0)
(-0.000494339 0.27626 0)
(-4.24771e-05 0.250342 0)
(-0.000323005 0.270406 0)
(-0.0032775 0.292941 0)
(-0.00294957 0.283102 0)
(-0.00104188 0.288354 0)
(-0.000737893 0.279359 0)
(0.000201135 0.265097 0)
(-0.00262877 0.266762 0)
(-0.00411671 0.27698 0)
(-0.00573845 0.275267 0)
(-0.00488676 0.271423 0)
(-0.00337485 0.271422 0)
(-0.00155638 0.270687 0)
(-0.000275436 0.272485 0)
(0.00113525 0.271506 0)
(0.000821808 0.267965 0)
(-0.00249751 0.267805 0)
(-0.00355842 0.26811 0)
(-0.000910496 0.270425 0)
(-0.00175515 0.269078 0)
(-0.00151312 0.268035 0)
(-0.000391958 0.268241 0)
(-0.000149218 0.267725 0)
(-0.000260006 0.267568 0)
(-0.000334574 0.267535 0)
(4.35509e-05 0.267826 0)
(-0.000646887 0.267713 0)
(-0.000519704 0.267659 0)
(3.95341e-05 0.267856 0)
(-0.000297803 0.267754 0)
(-0.000394434 0.267699 0)
(-0.000104404 0.267541 0)
(-0.000499272 0.267775 0)
(-2.79531e-05 0.267665 0)
(-0.000219835 0.267708 0)
(-0.000108253 0.267518 0)
(-5.24028e-05 0.267698 0)
(-0.00014851 0.267616 0)
(-2.95381e-05 0.267633 0)
(-0.00013053 0.267638 0)
(7.46307e-05 0.267619 0)
(-7.68085e-05 0.267806 0)
(7.61439e-05 0.267716 0)
(1.08237e-05 0.267645 0)
(-2.71896e-06 0.267728 0)
(8.60815e-05 0.267635 0)
(0.000128904 0.267796 0)
(7.23837e-05 0.267633 0)
(0.000160192 0.267775 0)
(0.000159685 0.267611 0)
(0.000110116 0.267741 0)
(1.26925e-05 0.267777 0)
(0.000478314 0.267905 0)
(0.000218201 0.267735 0)
(-7.02038e-06 0.267867 0)
(0.000264241 0.267592 0)
(-4.3266e-05 0.268002 0)
(3.87306e-05 0.267536 0)
(0.000171148 0.267976 0)
(0.00066162 0.267562 0)
(0.000189187 0.268127 0)
(0.000638191 0.26735 0)
(0.000431746 0.267789 0)
(0.000488912 0.267733 0)
(0.000822401 0.268693 0)
(0.00133948 0.268148 0)
(0.00187018 0.26866 0)
(0.000924561 0.270393 0)
(0.00372558 0.268313 0)
(0.00281326 0.267494 0)
(-0.000922545 0.26824 0)
(-0.000288833 0.27063 0)
(0.00102521 0.272036 0)
(0.00147537 0.26919 0)
(0.00244476 0.27167 0)
(0.00462473 0.271882 0)
(0.00620396 0.273577 0)
(0.0049386 0.276969 0)
(0.00300464 0.26484 0)
(0.000254198 0.265293 0)
(0.00144387 0.277969 0)
(0.00114456 0.28944 0)
(0.00251853 0.283907 0)
(0.00387639 0.292301 0)
(0.00194445 0.273775 0)
(0.000719067 0.25069 0)
(0.000457862 0.27296 0)
(0.000169963 0.294722 0)
(0.000542421 0.253772 0)
(-0.000736093 0.280365 0)
(-0.000821025 0.298856 0)
(-0.0022878 0.28003 0)
(-0.000447081 0.273538 0)
(-0.000143953 0.260006 0)
(0.000699979 0.29578 0)
(-0.0010126 0.293784 0)
(0.000575407 0.286478 0)
(0.000327728 0.255959 0)
(0.000590797 0.299919 0)
(-0.000240144 0.284107 0)
(-8.62071e-05 0.248132 0)
(-0.000771371 0.276591 0)
(-0.00283 0.299835 0)
(-0.003207 0.287268 0)
(-0.00108089 0.290149 0)
(0.000612285 0.286581 0)
(0.000690923 0.271173 0)
(-0.000858389 0.27068 0)
(-0.00176995 0.2868 0)
(-0.00370804 0.287529 0)
(-0.00394375 0.287493 0)
(-0.00209981 0.286287 0)
(-0.00133196 0.287164 0)
(-0.000640991 0.287631 0)
(0.000894219 0.286834 0)
(0.000142791 0.282931 0)
(-0.00136092 0.282266 0)
(-0.00223053 0.28634 0)
(-0.00133543 0.287649 0)
(-0.00121459 0.287781 0)
(-0.000654632 0.287403 0)
(-0.000458977 0.287327 0)
(-0.000506041 0.287389 0)
(-0.000299462 0.287315 0)
(-0.000573076 0.287343 0)
(-0.000492243 0.287693 0)
(-9.94297e-05 0.287609 0)
(-0.000243494 0.287544 0)
(-0.000374083 0.287498 0)
(-8.43591e-05 0.287759 0)
(-0.000471085 0.287457 0)
(-0.000303527 0.28765 0)
(-0.000385074 0.287503 0)
(-0.000334358 0.28758 0)
(-8.41842e-05 0.287432 0)
(-2.55873e-05 0.287391 0)
(-0.00018183 0.287569 0)
(-0.000169959 0.287631 0)
(0.000270702 0.287473 0)
(-2.14329e-05 0.287672 0)
(-3.91718e-05 0.287654 0)
(4.48376e-05 0.287782 0)
(-0.000120251 0.287594 0)
(4.18969e-05 0.287664 0)
(-3.13954e-05 0.287578 0)
(8.80203e-05 0.287646 0)
(0.000116072 0.287745 0)
(-0.000256753 0.287741 0)
(0.000167563 0.287322 0)
(0.000284527 0.287515 0)
(0.000345825 0.287561 0)
(0.000301377 0.287763 0)
(0.000227875 0.287633 0)
(0.000190819 0.287895 0)
(1.07691e-05 0.287623 0)
(-7.67896e-05 0.287836 0)
(-0.00017507 0.287285 0)
(0.000428732 0.287648 0)
(0.000307755 0.286647 0)
(0.000460708 0.287607 0)
(0.000617565 0.287598 0)
(0.000631061 0.286718 0)
(0.000668945 0.287399 0)
(0.000729513 0.28755 0)