/*--------------------------------*- C++ -*----------------------------------*\
| =========                 |                                                 |
| \\      /  F ield         | OpenFOAM: The Open Source CFD Toolbox           |
|  \\    /   O peration     | Version:  2312                                  |
|   \\  /    A nd           | Website:  www.openfoam.com                      |
|    \\/     M anipulation  |                                                 |
\*---------------------------------------------------------------------------*/
FoamFile
{
    version     2.0;
    format      ascii;
    arch        "LSB;label=32;scalar=64";
    class       volVectorField;
    location    "1";
    object      U.airMean;
}
// * * * * * * * * * * * * * * * * * * * * * * * * * * * * * * * * * * * * * //

dimensions      [0 1 -1 0 0 0 0];

internalField   nonuniform List<vector> 
50000
(
(0.00172092 0.115115 0)
(-0.000547788 0.113154 0)
(0.00101363 0.114728 0)
(-0.00312125 0.113075 0)
(-0.00101711 0.117151 0)
(0.00269212 0.114339 0)
(-0.00412451 0.11206 0)
(0.00187703 0.11751 0)
(0.00562262 0.114216 0)
(0.00287766 0.112608 0)
(0.000955953 0.110662 0)
(0.000749532 0.111124 0)
(-0.00273935 0.109231 0)
(-0.00139186 0.113021 0)
(0.00358575 0.112375 0)
(0.00373512 0.109265 0)
(0.0012665 0.109092 0)
(0.000830296 0.10553 0)
(0.00050946 0.105832 0)
(0.000541731 0.104201 0)
(-0.000123771 0.105475 0)
(-0.000911352 0.105772 0)
(-0.00115178 0.106522 0)
(0.000510363 0.107235 0)
(0.00112924 0.104019 0)
(0.00064729 0.104555 0)
(0.000217747 0.104033 0)
(0.000180341 0.103277 0)
(0.000138709 0.103289 0)
(-6.22792e-05 0.103317 0)
(-1.40522e-05 0.103186 0)
(0.000119236 0.103107 0)
(5.07957e-05 0.103168 0)
(-6.16264e-05 0.103107 0)
(-8.304e-06 0.103013 0)
(-1.30922e-05 0.103035 0)
(-7.3592e-05 0.103314 0)
(-0.000206373 0.102975 0)
(-9.0564e-05 0.103098 0)
(-3.64199e-05 0.103041 0)
(-8.48925e-05 0.102959 0)
(-0.00010219 0.102984 0)
(-4.48934e-05 0.102929 0)
(1.11858e-05 0.103001 0)
(-4.60032e-05 0.102894 0)
(2.32187e-05 0.10296 0)
(7.98525e-06 0.102916 0)
(3.20205e-05 0.102925 0)
(4.13686e-05 0.103019 0)
(-3.58886e-05 0.102924 0)
(1.83297e-05 0.102958 0)
(2.50289e-05 0.10294 0)
(2.64552e-05 0.102965 0)
(4.8621e-05 0.102975 0)
(-2.55999e-05 0.102969 0)
(3.46162e-05 0.10294 0)
(4.14546e-05 0.10298 0)
(8.30338e-05 0.102936 0)
(7.79667e-05 0.103041 0)
(3.1405e-05 0.103025 0)
(-3.90594e-09 0.103043 0)
(3.89214e-06 0.102971 0)
(4.00114e-05 0.102915 0)
(-1.94073e-05 0.103301 0)
(-0.000171156 0.102912 0)
(-4.33058e-05 0.103481 0)
(0.000189964 0.102987 0)
(-0.000105252 0.103203 0)
(-4.64515e-05 0.10344 0)
(0.000176555 0.103125 0)
(8.21078e-05 0.103373 0)
(-2.15898e-05 0.103387 0)
(-0.00016689 0.103186 0)
(-0.000159063 0.103699 0)
(-0.000525619 0.104466 0)
(-0.000948391 0.103818 0)
(-0.000594234 0.106837 0)
(0.00103164 0.106788 0)
(0.00104771 0.105364 0)
(0.000196647 0.105429 0)
(-0.000398422 0.104301 0)
(-0.000500901 0.105703 0)
(-0.000756709 0.105586 0)
(-0.00110105 0.108902 0)
(-0.00344396 0.109337 0)
(-0.00360587 0.112237 0)
(0.00138428 0.11317 0)
(0.00308592 0.109021 0)
(-0.000213432 0.111234 0)
(-0.000966881 0.110249 0)
(-0.0021675 0.1124 0)
(-0.00580258 0.113379 0)
(-0.00222177 0.117527 0)
(0.00435674 0.11196 0)
(-0.00269846 0.114021 0)
(0.00165739 0.117387 0)
(0.00419763 0.112815 0)
(-0.000648668 0.114542 0)
(0.00195974 0.113097 0)
(0.000388399 0.111441 0)
(0.00312653 0.246355 0)
(0.00717473 0.252054 0)
(-0.00355223 0.252589 0)
(-0.0105923 0.250157 0)
(0.00214779 0.243196 0)
(0.00229563 0.252505 0)
(-0.0112126 0.251129 0)
(-0.000395983 0.241621 0)
(0.00823643 0.24646 0)
(0.00722397 0.25113 0)
(0.00244602 0.250245 0)
(-0.0025398 0.250742 0)
(-0.00723021 0.250379 0)
(-0.00269359 0.245905 0)
(0.00425846 0.246459 0)
(0.00701249 0.249098 0)
(0.000218547 0.249076 0)
(-0.00113577 0.248003 0)
(0.000225569 0.248189 0)
(0.000535429 0.247917 0)
(0.000357814 0.247896 0)
(-0.00172194 0.24769 0)
(-0.00175962 0.247445 0)
(0.000377016 0.24732 0)
(0.00152175 0.24775 0)
(0.00112244 0.247658 0)
(-5.30397e-05 0.247595 0)
(3.87193e-05 0.247651 0)
(0.000208441 0.247629 0)
(-0.000242601 0.2476 0)
(-0.000163516 0.247685 0)
(0.000197784 0.24769 0)
(7.39093e-05 0.2477 0)
(-0.000124709 0.247677 0)
(-4.36334e-05 0.24772 0)
(0.000175977 0.247667 0)
(-7.00469e-05 0.247602 0)
(-0.000427755 0.247675 0)
(-0.000118323 0.247678 0)
(-3.46621e-05 0.247647 0)
(-0.000119017 0.24767 0)
(-0.000141743 0.247648 0)
(-5.04288e-05 0.247651 0)
(1.63537e-05 0.24765 0)
(-6.73043e-05 0.247664 0)
(3.55798e-05 0.247647 0)
(2.79037e-06 0.247662 0)
(5.34553e-05 0.247656 0)
(5.57018e-05 0.24766 0)
(-5.21332e-05 0.24766 0)
(2.26513e-05 0.247654 0)
(3.18172e-05 0.247656 0)
(3.8237e-05 0.247656 0)
(6.0494e-05 0.247661 0)
(-3.92318e-05 0.24766 0)
(4.4419e-05 0.247649 0)
(4.82939e-05 0.247651 0)
(0.000113503 0.247655 0)
(0.000112379 0.24766 0)
(4.57257e-05 0.24766 0)
(-1.75748e-05 0.247657 0)
(-7.56117e-06 0.247689 0)
(0.000220109 0.247684 0)
(-5.87976e-05 0.247602 0)
(-0.000385914 0.247681 0)
(-1.99626e-05 0.247644 0)
(0.000276077 0.247696 0)
(-0.000115659 0.247703 0)
(-0.000110034 0.247633 0)
(0.000375612 0.247705 0)
(0.000293191 0.247603 0)
(-7.65688e-05 0.247616 0)
(-0.00012739 0.247668 0)
(0.000117712 0.24763 0)
(-0.000915419 0.247632 0)
(-0.00132694 0.2478 0)
(-0.000441416 0.247322 0)
(0.00150733 0.247373 0)
(0.00183885 0.247701 0)
(-7.01489e-05 0.24789 0)
(-0.00038488 0.247894 0)
(-0.000200945 0.248134 0)
(0.00113536 0.247991 0)
(0.000213327 0.24896 0)
(-0.0066046 0.249135 0)
(-0.00438411 0.246575 0)
(0.00261029 0.245679 0)
(0.00780306 0.250277 0)
(0.0032519 0.250881 0)
(-0.00214512 0.250141 0)
(-0.00586826 0.251306 0)
(-0.00881017 0.247428 0)
(0.000161142 0.241475 0)
(0.0109163 0.250952 0)
(-0.00257318 0.252479 0)
(-0.00189564 0.242725 0)
(0.0117361 0.249649 0)
(0.00246936 0.2517 0)
(-0.00430542 0.249134 0)
(0.0019051 0.250251 0)
(-0.00212579 0.232027 0)
(0.00180519 0.238989 0)
(-0.00318134 0.248837 0)
(-0.00387175 0.23435 0)
(-0.00191343 0.234316 0)
(0.000547698 0.245413 0)
(-0.00546444 0.236149 0)
(-0.000628371 0.233723 0)
(0.00225362 0.233898 0)
(0.00249156 0.238015 0)
(0.000130109 0.236814 0)
(-0.000652778 0.237242 0)
(-0.00253582 0.229042 0)
(-0.00122698 0.232132 0)
(0.00135582 0.231672 0)
(0.00152765 0.231189 0)
(-0.000377286 0.231556 0)
(0.000310301 0.224035 0)
(-0.000312264 0.223794 0)
(-0.000621305 0.222976 0)
(-0.000127468 0.224498 0)
(-0.000732339 0.225158 0)
(-0.000832759 0.224962 0)
(0.00026004 0.225827 0)
(0.000539799 0.223206 0)
(0.000325264 0.223764 0)
(0.000132541 0.223329 0)
(0.000136192 0.222497 0)
(7.48986e-05 0.222588 0)
(6.78046e-05 0.22268 0)
(0.000107562 0.222568 0)
(7.05361e-05 0.222605 0)
(5.0486e-06 0.22267 0)
(-2.6683e-05 0.22264 0)
(-3.94985e-05 0.222492 0)
(-0.000163622 0.222598 0)
(-0.00012051 0.222747 0)
(-0.000173843 0.222492 0)
(-8.90087e-05 0.222515 0)
(-0.000127294 0.222507 0)
(-0.000120872 0.222409 0)
(-0.000148722 0.222434 0)
(-6.46139e-05 0.222366 0)
(9.86457e-06 0.222465 0)
(-6.65242e-05 0.222342 0)
(3.20629e-05 0.222416 0)
(1.1309e-05 0.222376 0)
(5.08457e-05 0.22237 0)
(6.14645e-05 0.222489 0)
(-5.47024e-05 0.222374 0)
(2.64412e-05 0.222433 0)
(3.70314e-05 0.222391 0)
(4.29909e-05 0.222434 0)
(7.14306e-05 0.222432 0)
(-4.22111e-05 0.222435 0)
(4.59705e-05 0.222388 0)
(6.10887e-05 0.222447 0)
(0.000126504 0.222383 0)
(0.000119141 0.222507 0)
(4.36257e-05 0.222473 0)
(4.27336e-05 0.222537 0)
(-4.59806e-05 0.222413 0)
(-3.95515e-05 0.222436 0)
(-1.37442e-05 0.222735 0)
(-1.28229e-05 0.222471 0)
(-3.82032e-05 0.222861 0)
(0.000134966 0.222547 0)
(-1.06154e-05 0.222706 0)
(2.10062e-05 0.222823 0)
(6.38211e-05 0.222527 0)
(-2.05417e-05 0.222739 0)
(5.10014e-05 0.222722 0)
(-0.000147672 0.222436 0)
(-6.70828e-05 0.223042 0)
(-0.000201068 0.223725 0)
(-0.000431819 0.223105 0)
(-0.000297374 0.225393 0)
(0.000817619 0.225236 0)
(0.000853103 0.224712 0)
(0.000228176 0.224444 0)
(0.000686931 0.223158 0)
(0.000543138 0.223752 0)
(-0.0002569 0.223989 0)
(0.000606161 0.231069 0)
(-0.00132566 0.231417 0)
(-0.00119377 0.231544 0)
(0.00161939 0.232178 0)
(0.00282582 0.228369 0)
(0.00110333 0.237472 0)
(7.36432e-05 0.235857 0)
(-0.0017545 0.237967 0)
(-0.00203489 0.233221 0)
(0.000605575 0.23328 0)
(0.00497502 0.236286 0)
(-0.000161945 0.245242 0)
(0.000983659 0.233985 0)
(0.00371293 0.235581 0)
(-0.000407046 0.247905 0)
(-0.00254519 0.235498 0)
(0.000800507 0.231291 0)
(-0.00383352 0.279549 0)
(-0.0028416 0.28459 0)
(-0.000585411 0.289439 0)
(-0.000469293 0.282564 0)
(-0.00466407 0.272093 0)
(0.00230332 0.287109 0)
(-0.00218498 0.284282 0)
(0.000346743 0.269826 0)
(0.00328021 0.277539 0)
(0.00254477 0.285297 0)
(-0.000272557 0.287259 0)
(0.000214263 0.286546 0)
(-0.00177561 0.285156 0)
(-0.00148262 0.27849 0)
(0.00193313 0.279399 0)
(-0.000173563 0.285289 0)
(-3.37171e-05 0.285869 0)
(0.00349069 0.285661 0)
(0.000151031 0.285265 0)
(-0.00154969 0.285516 0)
(6.79359e-05 0.285666 0)
(-0.000488242 0.285412 0)
(-0.00110656 0.284497 0)
(0.00039801 0.284036 0)
(0.000588487 0.28549 0)
(0.000263169 0.285634 0)
(0.000270291 0.285594 0)
(0.000217751 0.285631 0)
(1.49104e-05 0.285623 0)
(3.93006e-05 0.285586 0)
(0.000141296 0.285524 0)
(4.79707e-05 0.285527 0)
(-3.28698e-05 0.285544 0)
(3.30741e-05 0.285499 0)
(7.70582e-05 0.285554 0)
(-0.00016887 0.285471 0)
(-0.000192445 0.285504 0)
(-0.000211274 0.285531 0)
(-0.000130166 0.285561 0)
(-0.000126074 0.285576 0)
(-0.000140661 0.285627 0)
(-0.000153515 0.285586 0)
(-5.37427e-05 0.285594 0)
(1.78642e-05 0.285593 0)
(-7.47533e-05 0.285639 0)
(3.82607e-05 0.285594 0)
(4.1073e-06 0.285627 0)
(5.9437e-05 0.285622 0)
(6.38984e-05 0.285611 0)
(-5.68165e-05 0.285632 0)
(3.16963e-05 0.285595 0)
(3.87713e-05 0.285616 0)
(4.2456e-05 0.285605 0)
(7.41344e-05 0.285627 0)
(-4.99525e-05 0.285617 0)
(4.69496e-05 0.285594 0)
(6.63269e-05 0.285589 0)
(0.000130175 0.2856 0)
(0.000123103 0.285619 0)
(5.91335e-05 0.28561 0)
(4.5108e-05 0.28561 0)
(-2.16404e-05 0.285603 0)
(-1.08496e-05 0.285576 0)
(4.35333e-05 0.285493 0)
(-3.51055e-05 0.28553 0)
(-0.000128362 0.285399 0)
(9.59132e-05 0.285557 0)
(-2.09983e-05 0.285559 0)
(3.56229e-05 0.285415 0)
(7.45237e-05 0.285544 0)
(4.12732e-06 0.285598 0)
(0.000133353 0.285623 0)
(-0.00023066 0.285676 0)
(-0.000202454 0.285669 0)
(-9.62511e-05 0.285641 0)
(-0.000455682 0.285557 0)
(-0.000472012 0.284233 0)
(0.00110998 0.284347 0)
(0.000690139 0.285448 0)
(-2.59705e-05 0.285671 0)
(0.00158403 0.285417 0)
(9.11074e-05 0.285283 0)
(-0.00342094 0.28553 0)
(0.000115771 0.285908 0)
(0.000342706 0.28528 0)
(-0.00167489 0.279445 0)
(0.00179092 0.278165 0)
(0.00183304 0.285035 0)
(0.000528263 0.286413 0)
(0.000420128 0.287167 0)
(-0.00192235 0.285558 0)
(-0.00296321 0.279076 0)
(-0.000308359 0.269989 0)
(0.0018666 0.284159 0)
(-0.00178108 0.286826 0)
(0.00451898 0.272147 0)
(0.000690258 0.283971 0)
(0.000118048 0.288976 0)
(0.00464777 0.28238 0)
(0.00340388 0.283386 0)
(-0.00187403 0.273269 0)
(0.000812439 0.270868 0)
(-0.000749468 0.280638 0)
(0.00120513 0.272005 0)
(-0.00153227 0.265499 0)
(0.00099948 0.278343 0)
(-0.000510726 0.270893 0)
(0.000795063 0.263731 0)
(0.000105467 0.266226 0)
(-0.00058875 0.274984 0)
(-0.00109613 0.275372 0)
(-0.000213229 0.274921 0)
(-0.000427619 0.265867 0)
(-0.00059275 0.265169 0)
(-0.000897799 0.26587 0)
(-0.00108524 0.269351 0)
(-0.000866228 0.26773 0)
(-2.31801e-05 0.262417 0)
(-0.000603038 0.26435 0)
(-0.00051729 0.26188 0)
(-0.000176207 0.263103 0)
(-0.000287389 0.264773 0)
(-0.000262378 0.263111 0)
(-0.000116058 0.263286 0)
(-3.47599e-05 0.261925 0)
(0.000172261 0.26303 0)
(1.60614e-05 0.262564 0)
(6.32123e-05 0.261616 0)
(1.95562e-05 0.261796 0)
(2.99112e-05 0.261795 0)
(5.32567e-05 0.261537 0)
(2.2156e-05 0.26169 0)
(-3.03143e-05 0.261761 0)
(-2.49439e-05 0.261709 0)
(-5.20868e-05 0.261457 0)
(-0.000149069 0.261653 0)
(-7.74359e-05 0.261708 0)
(-0.000126093 0.261434 0)
(-8.12878e-05 0.261373 0)
(-0.000153836 0.261498 0)
(-0.000125209 0.261399 0)
(-0.000150834 0.261412 0)
(-6.55897e-05 0.261323 0)
(2.00971e-05 0.261466 0)
(-6.96357e-05 0.261335 0)
(3.99179e-05 0.261409 0)
(9.63471e-06 0.261366 0)
(5.5476e-05 0.261361 0)
(6.31274e-05 0.261489 0)
(-6.2964e-05 0.261378 0)
(2.84394e-05 0.261405 0)
(4.01375e-05 0.26139 0)
(5.09401e-05 0.261416 0)
(7.43345e-05 0.261435 0)
(-5.69775e-05 0.26142 0)
(5.08065e-05 0.261366 0)
(5.44714e-05 0.261416 0)
(0.000150246 0.261362 0)
(0.000125435 0.261487 0)
(5.0191e-05 0.26147 0)
(6.25863e-05 0.261528 0)
(-5.88175e-05 0.261347 0)
(-0.000109372 0.261377 0)
(-5.96416e-05 0.261686 0)
(3.60409e-05 0.261509 0)
(-2.15852e-05 0.261643 0)
(0.000108787 0.261624 0)
(1.18018e-05 0.261803 0)
(1.9934e-05 0.261789 0)
(0.000103259 0.261519 0)
(4.27476e-05 0.261872 0)
(0.000111436 0.261945 0)
(-7.93927e-05 0.261632 0)
(5.89101e-05 0.262247 0)
(-0.000140731 0.263042 0)
(7.17222e-05 0.261904 0)
(0.000250699 0.263061 0)
(0.000296036 0.263203 0)
(0.000321724 0.264268 0)
(0.000207285 0.263088 0)
(0.000658616 0.261982 0)
(0.000798317 0.264302 0)
(0.00019277 0.262315 0)
(0.000952986 0.2673 0)
(0.00127655 0.269559 0)
(0.000986277 0.265796 0)
(0.000945806 0.265291 0)
(0.000733028 0.26493 0)
(0.000639899 0.274899 0)
(0.00120079 0.274731 0)
(0.000982139 0.275029 0)
(0.000401027 0.266281 0)
(-0.000567342 0.263524 0)
(0.000307889 0.27109 0)
(-0.000302224 0.277641 0)
(0.00180725 0.26535 0)
(-0.000884471 0.274005 0)
(0.00177801 0.278263 0)
(-0.000230466 0.265951 0)
(0.00106949 0.276446 0)
(0.00207605 0.284887 0)
(0.0012768 0.289162 0)
(-0.0026997 0.292962 0)
(0.000771745 0.288582 0)
(-0.00102791 0.277843 0)
(0.00120764 0.291376 0)
(-0.000277779 0.288782 0)
(0.000991649 0.275504 0)
(0.000207683 0.282819 0)
(-0.000923792 0.290225 0)
(-6.00472e-05 0.291329 0)
(0.00131691 0.290993 0)
(0.000410358 0.289911 0)
(-0.000894908 0.283278 0)
(-0.000606038 0.284163 0)
(-0.000631558 0.289809 0)
(0.00112765 0.290434 0)
(0.000481928 0.290016 0)
(-0.000693404 0.290291 0)
(0.000287698 0.290288 0)
(-0.000396642 0.290371 0)
(-0.000302218 0.290302 0)
(-0.000197935 0.28915 0)
(-4.21158e-05 0.288628 0)
(0.000152018 0.290278 0)
(0.00010775 0.29029 0)
(0.000175626 0.290317 0)
(0.000112587 0.290243 0)
(-1.18119e-05 0.290298 0)
(9.47465e-05 0.290227 0)
(0.000133177 0.290194 0)
(-1.48993e-06 0.290167 0)
(-5.70343e-05 0.290267 0)
(-6.38324e-05 0.290169 0)
(-9.37106e-05 0.290297 0)
(-0.000245363 0.290223 0)
(-0.000141942 0.290306 0)
(-9.89261e-05 0.290307 0)
(-9.48324e-05 0.290304 0)
(-0.000154001 0.290291 0)
(-0.000148223 0.290354 0)
(-0.000151556 0.290285 0)
(-4.31601e-05 0.290304 0)
(2.58438e-05 0.290292 0)
(-6.89244e-05 0.290373 0)
(3.92624e-05 0.290285 0)
(2.71048e-06 0.290344 0)
(5.93129e-05 0.290339 0)
(5.91119e-05 0.290342 0)
(-6.40142e-05 0.290358 0)
(3.60763e-05 0.290305 0)
(4.0305e-05 0.290328 0)
(4.28964e-05 0.290317 0)
(7.16701e-05 0.290362 0)
(-6.12953e-05 0.290332 0)
(4.63595e-05 0.290299 0)
(5.87097e-05 0.29027 0)
(0.000137314 0.290303 0)
(0.000125776 0.290331 0)
(7.78909e-05 0.290335 0)
(7.13866e-05 0.290324 0)
(-4.22789e-05 0.290388 0)
(-0.000136815 0.290371 0)
(1.70136e-05 0.290266 0)
(8.97261e-05 0.29027 0)
(4.25421e-05 0.290104 0)
(0.000163336 0.290193 0)
(-1.6264e-05 0.290313 0)
(5.51737e-05 0.290006 0)
(4.40992e-05 0.290202 0)
(-3.59414e-05 0.290247 0)
(0.000185865 0.290329 0)
(-2.73709e-05 0.290308 0)
(-9.063e-05 0.290376 0)
(-0.000147686 0.290314 0)
(-0.000123668 0.290259 0)
(0.000108784 0.288866 0)
(0.000272474 0.289012 0)
(0.000331207 0.290296 0)
(0.000252629 0.29031 0)
(-9.15151e-05 0.29015 0)
(0.000897178 0.290265 0)
(-0.000209544 0.28991 0)
(-0.00106459 0.290404 0)
(0.000803779 0.289843 0)
(0.000774853 0.284137 0)
(0.0013797 0.282859 0)
(-0.000140713 0.289812 0)
(-0.000896128 0.290907 0)
(6.80562e-05 0.291255 0)
(0.00102116 0.290361 0)
(0.000246946 0.284446 0)
(-0.00092146 0.275973 0)
(0.000121262 0.288365 0)
(-0.000789388 0.290826 0)
(0.000903473 0.278168 0)
(-0.000465544 0.288734 0)
(0.00367027 0.291904 0)
(-0.00212786 0.286175 0)
(-0.00230147 0.289351 0)
(0.000377931 0.272033 0)
(0.00120971 0.279562 0)
(-0.00118443 0.282034 0)
(0.00123184 0.273603 0)
(-0.000642578 0.267407 0)
(0.000426847 0.279706 0)
(0.000609474 0.273521 0)
(0.000352554 0.26629 0)
(-0.00136043 0.270206 0)
(-0.0017206 0.278095 0)
(-0.00100777 0.277018 0)
(5.65165e-05 0.27783 0)
(0.000106815 0.271846 0)
(-0.000201058 0.268995 0)
(-0.00132812 0.269333 0)
(-0.00115929 0.272709 0)
(-0.000745932 0.270934 0)
(-0.000833579 0.269048 0)
(-0.000577355 0.270557 0)
(-9.30843e-05 0.268146 0)
(-0.000264251 0.268908 0)
(-5.0219e-05 0.270339 0)
(0.000122628 0.268357 0)
(-0.000114954 0.26846 0)
(-0.000510667 0.267895 0)
(-0.000145448 0.268896 0)
(-0.000108564 0.268499 0)
(-8.10899e-05 0.267884 0)
(9.26233e-06 0.26797 0)
(1.13095e-05 0.267925 0)
(4.01539e-05 0.267686 0)
(-3.56171e-06 0.267878 0)
(-3.81474e-05 0.267842 0)
(-2.48563e-05 0.267798 0)
(-5.39137e-05 0.26771 0)
(-0.00019266 0.267833 0)
(-0.000116556 0.267965 0)
(-0.000107176 0.268011 0)
(-5.86013e-05 0.267885 0)
(-0.000143524 0.268069 0)
(-0.000143291 0.26794 0)
(-0.000135629 0.26798 0)
(-2.60354e-05 0.267871 0)
(4.0233e-05 0.268057 0)
(-6.98468e-05 0.267903 0)
(4.56336e-05 0.267983 0)
(-1.81386e-06 0.267936 0)
(5.16964e-05 0.267904 0)
(5.93589e-05 0.268028 0)
(-6.84446e-05 0.267917 0)
(2.45578e-05 0.267929 0)
(4.01475e-05 0.267949 0)
(5.92819e-05 0.267939 0)
(6.54288e-05 0.267977 0)
(-7.40204e-05 0.267947 0)
(4.80055e-05 0.267928 0)
(4.28153e-05 0.267956 0)
(0.00016718 0.267939 0)
(0.000123222 0.267998 0)
(3.96275e-05 0.268049 0)
(5.85063e-05 0.268086 0)
(-7.23267e-05 0.267958 0)
(-0.000121929 0.26796 0)
(-3.00175e-05 0.267965 0)
(0.000124091 0.267644 0)
(-1.64422e-05 0.267743 0)
(9.37634e-05 0.267781 0)
(1.571e-05 0.267936 0)
(1.35782e-05 0.267752 0)
(0.000108365 0.267684 0)
(7.02954e-05 0.26798 0)
(0.000128381 0.268126 0)
(8.56086e-05 0.267936 0)
(0.000206898 0.268247 0)
(7.18839e-05 0.268933 0)
(0.000506252 0.267921 0)
(0.000373552 0.268312 0)
(-0.000131318 0.268363 0)
(-4.72363e-05 0.270027 0)
(0.000339157 0.268862 0)
(0.00022535 0.268086 0)
(0.000698857 0.270495 0)
(0.00102624 0.269031 0)
(0.000816464 0.270558 0)
(0.00135406 0.272813 0)
(0.00146397 0.269106 0)
(0.000524347 0.269132 0)
(0.000133456 0.271 0)
(0.000164594 0.277873 0)
(0.000965977 0.276848 0)
(0.00189775 0.277768 0)
(0.00153919 0.27042 0)
(-0.000163529 0.266378 0)
(-0.000328998 0.273598 0)
(0.000216152 0.279054 0)
(0.000820921 0.267407 0)
(-0.00140444 0.274245 0)
(0.00175417 0.281381 0)
(-0.00185954 0.276084 0)
(-0.000257427 0.27448 0)
(0.00014494 0.286927 0)
(0.0010943 0.293977 0)
(0.0001701 0.295694 0)
(0.00136384 0.29174 0)
(-0.000957866 0.281687 0)
(0.000861468 0.293753 0)
(0.00117649 0.29194 0)
(-3.73256e-05 0.280907 0)
(-0.000911823 0.287499 0)
(-0.00137375 0.293159 0)
(-0.000629345 0.293347 0)
(0.00124876 0.294044 0)
(0.000572213 0.292871 0)
(-0.000518707 0.287379 0)
(-0.000503659 0.287658 0)
(-0.000232023 0.292632 0)
(-3.19681e-05 0.292949 0)
(-0.000988447 0.292985 0)
(0.000271822 0.293202 0)
(0.000298586 0.292849 0)
(-0.00104433 0.293226 0)
(-1.6433e-05 0.293037 0)
(0.000265955 0.291842 0)
(0.000131284 0.291503 0)
(-0.00038464 0.292832 0)
(-0.000455348 0.292965 0)
(3.00151e-05 0.293095 0)
(0.000108592 0.292918 0)
(-1.78232e-05 0.293032 0)
(2.57264e-05 0.292922 0)
(-4.33864e-05 0.292951 0)
(-2.99123e-05 0.292959 0)
(-3.97426e-05 0.293101 0)
(-5.79292e-05 0.292951 0)
(-5.60101e-05 0.293117 0)
(-0.000192474 0.292998 0)
(0.000101089 0.293018 0)
(8.50919e-05 0.292831 0)
(-9.15989e-05 0.292896 0)
(-0.000109316 0.292966 0)
(-0.000106186 0.292957 0)
(-0.000144569 0.292937 0)
(-2.93231e-05 0.292836 0)
(3.97569e-05 0.292871 0)
(-6.4236e-05 0.293116 0)
(5.17332e-05 0.292863 0)
(-6.48628e-06 0.292927 0)
(4.82985e-05 0.292987 0)
(5.28511e-05 0.293023 0)
(-6.80811e-05 0.293045 0)
(3.34013e-05 0.292955 0)
(3.32465e-05 0.292938 0)
(4.23219e-05 0.293056 0)
(6.13697e-05 0.292971 0)
(-7.14024e-05 0.293004 0)
(4.94565e-05 0.292999 0)
(5.04026e-05 0.29292 0)
(0.000108822 0.292826 0)
(0.000127509 0.292949 0)
(7.68656e-05 0.29292 0)
(4.96048e-05 0.292921 0)
(-1.58599e-05 0.292953 0)
(-0.000314074 0.292819 0)
(-0.000272923 0.292971 0)
(0.000115278 0.293096 0)
(2.79523e-05 0.292865 0)
(0.000123743 0.292965 0)
(-8.28538e-05 0.293114 0)
(4.67178e-05 0.292835 0)
(0.000262083 0.292957 0)
(9.95575e-05 0.292952 0)
(0.000168527 0.293032 0)
(-1.39791e-06 0.292988 0)
(8.91095e-05 0.293263 0)
(0.000217421 0.292952 0)
(0.000288135 0.29273 0)
(8.41057e-05 0.291774 0)
(-0.000207423 0.291835 0)
(-3.73516e-05 0.292932 0)
(0.000898944 0.29294 0)
(-0.000193798 0.292704 0)
(-4.7518e-05 0.293154 0)
(0.00123676 0.292963 0)
(7.09698e-05 0.292899 0)
(0.000438408 0.292637 0)
(0.000700197 0.287574 0)
(0.000975215 0.286825 0)
(-0.000379642 0.292789 0)
(-0.00129385 0.294129 0)
(0.000630821 0.293358 0)
(0.00151036 0.293195 0)
(0.00100727 0.289112 0)
(-5.97174e-05 0.280772 0)
(-0.000793005 0.291232 0)
(-0.000272245 0.293346 0)
(0.000783347 0.282859 0)
(-0.00137645 0.291527 0)
(0.000447691 0.294982 0)
(-0.0012479 0.291561 0)
(-7.16899e-05 0.290775 0)
(-0.000267381 0.276737 0)
(0.000732172 0.285395 0)
(3.81304e-05 0.287141 0)
(0.00106937 0.28108 0)
(-6.13929e-05 0.273353 0)
(7.08552e-05 0.283983 0)
(0.000572724 0.280386 0)
(0.000221093 0.273982 0)
(-0.000957434 0.277462 0)
(-0.0015533 0.283786 0)
(-0.0011057 0.281664 0)
(-4.8459e-05 0.283478 0)
(0.000635643 0.280069 0)
(0.000198999 0.276468 0)
(-0.00106252 0.276215 0)
(-0.00119278 0.27972 0)
(-0.00111081 0.278715 0)
(-0.00104734 0.277511 0)
(-0.000142422 0.277936 0)
(-0.000161558 0.277078 0)
(-0.000380091 0.277529 0)
(0.000128407 0.277989 0)
(0.000107231 0.276651 0)
(-0.000125621 0.276592 0)
(-0.000461975 0.276736 0)
(-0.00037052 0.27726 0)
(-0.000222097 0.277084 0)
(-4.12804e-05 0.276696 0)
(6.42677e-06 0.276747 0)
(-0.00010802 0.276714 0)
(-8.49714e-06 0.276421 0)
(-1.14266e-05 0.276656 0)
(-0.000179082 0.276674 0)
(3.63014e-05 0.276752 0)
(-2.0895e-05 0.276566 0)
(-0.000150455 0.27678 0)
(2.04361e-05 0.276609 0)
(-0.000158242 0.276443 0)
(-0.000138036 0.276271 0)
(-0.000117584 0.276397 0)
(-0.000111534 0.276272 0)
(-0.000112741 0.276238 0)
(5.72359e-06 0.276126 0)
(-6.45023e-05 0.27644 0)
(-5.1267e-05 0.276248 0)
(0.000141155 0.276325 0)
(-5.13697e-05 0.276337 0)
(1.93413e-05 0.276281 0)
(7.75399e-05 0.276465 0)
(-5.44788e-05 0.276302 0)
(1.41223e-05 0.276281 0)
(-1.11687e-05 0.276297 0)
(8.81737e-05 0.276316 0)
(7.35321e-05 0.276417 0)
(-0.000198139 0.276344 0)
(6.13103e-05 0.276221 0)
(0.000147 0.276279 0)
(0.000138764 0.276226 0)
(0.000104002 0.276492 0)
(0.000109551 0.276374 0)
(9.79427e-05 0.276417 0)
(-5.48132e-05 0.276334 0)
(-9.70415e-05 0.276325 0)
(-0.000219354 0.276571 0)
(9.31063e-05 0.276672 0)
(0.000140142 0.276506 0)
(3.33509e-05 0.276664 0)
(0.000126563 0.276699 0)
(-1.54145e-06 0.276458 0)
(5.7896e-05 0.276472 0)
(0.000169388 0.276774 0)
(0.000139035 0.276886 0)
(-7.65067e-05 0.276771 0)
(0.000312619 0.276889 0)
(0.000390019 0.27739 0)
(0.000446997 0.27671 0)
(0.000456695 0.276542 0)
(-0.000229484 0.276692 0)
(-0.00019094 0.27789 0)
(0.000465581 0.277435 0)
(0.000172698 0.276769 0)
(0.000203024 0.277843 0)
(0.00113921 0.277619 0)
(0.00125995 0.27845 0)
(0.00139391 0.279683 0)
(0.00117657 0.27593 0)
(-4.32087e-05 0.276533 0)
(-0.000487303 0.27974 0)
(0.000152834 0.283521 0)
(0.00116484 0.281622 0)
(0.00168475 0.283457 0)
(0.00137048 0.277944 0)
(-0.000199165 0.273517 0)
(-0.00052866 0.279973 0)
(0.000352139 0.283994 0)
(5.29686e-05 0.273884 0)
(-0.00104393 0.280963 0)
(0.000184551 0.286371 0)
(-0.00109223 0.282537 0)
(0.000143003 0.27946 0)
(-0.000935731 0.283518 0)
(0.000191959 0.290123 0)
(0.000946282 0.292026 0)
(0.000967625 0.288569 0)
(5.6526e-05 0.279293 0)
(0.000461589 0.290226 0)
(0.000509076 0.288619 0)
(0.00016881 0.278359 0)
(-0.00116194 0.285909 0)
(-0.00130858 0.290298 0)
(6.33213e-07 0.289474 0)
(-9.63676e-05 0.288655 0)
(0.000619298 0.28885 0)
(0.000647529 0.285039 0)
(-0.000575387 0.284981 0)
(-0.000743591 0.288641 0)
(-0.000485156 0.289157 0)
(-0.00079567 0.288368 0)
(-0.000300768 0.288648 0)
(3.2455e-05 0.289403 0)
(-0.000337244 0.288917 0)
(0.000126121 0.289112 0)
(4.4886e-05 0.287801 0)
(-6.95109e-05 0.287698 0)
(-0.000305626 0.289075 0)
(-0.000132001 0.289317 0)
(-0.000151958 0.288632 0)
(-0.000395669 0.289115 0)
(-2.51687e-05 0.289315 0)
(-0.000115303 0.289178 0)
(-0.000107032 0.288745 0)
(-1.7967e-05 0.289174 0)
(-3.67546e-05 0.288764 0)
(4.22898e-05 0.288559 0)
(-3.70833e-05 0.289161 0)
(-0.000215042 0.28897 0)
(-0.00011157 0.288841 0)
(-0.000130314 0.289015 0)
(-6.09174e-05 0.28871 0)
(-0.000112114 0.2888 0)
(-0.000107054 0.288728 0)
(-0.000154779 0.288552 0)
(-5.09059e-05 0.288953 0)
(9.00411e-05 0.288729 0)
(-3.39941e-05 0.28845 0)
(6.05351e-05 0.288736 0)
(-1.52991e-05 0.289153 0)
(1.80625e-05 0.288735 0)
(4.23309e-05 0.288809 0)
(-5.34417e-05 0.288961 0)
(7.57794e-06 0.288578 0)
(7.4956e-06 0.288998 0)
(7.63697e-05 0.288442 0)
(4.69152e-05 0.289162 0)
(-0.000102832 0.288633 0)
(2.14708e-05 0.288415 0)
(2.59371e-05 0.288641 0)
(0.000240101 0.288805 0)
(0.000102676 0.289101 0)
(-3.89905e-05 0.28907 0)
(7.41356e-05 0.288829 0)
(-2.77156e-05 0.289139 0)
(-8.13594e-05 0.288804 0)
(9.01774e-05 0.288654 0)
(0.000200837 0.28847 0)
(-5.25651e-05 0.288996 0)
(-8.7074e-06 0.288715 0)
(2.80679e-05 0.289035 0)
(7.30896e-05 0.288955 0)
(0.000169463 0.288655 0)
(0.00018398 0.289183 0)
(0.000178094 0.289402 0)
(0.000266351 0.289127 0)
(0.000270519 0.288324 0)
(0.000147825 0.28942 0)
(0.000385704 0.288682 0)
(0.00027931 0.287865 0)
(-0.000274893 0.28829 0)
(-0.000341027 0.288458 0)
(0.000335347 0.288822 0)
(0.000159498 0.288954 0)
(0.000441746 0.288599 0)
(0.000920817 0.288133 0)
(0.000544875 0.289064 0)
(0.000929119 0.288675 0)
(0.000534388 0.284907 0)
(-0.000407215 0.284575 0)
(-0.00041536 0.28868 0)
(0.000250363 0.288695 0)
(0.000104087 0.289296 0)
(0.00135371 0.290082 0)
(0.000964113 0.287553 0)
(-0.000314536 0.279307 0)
(-8.78748e-06 0.287324 0)
(0.000102485 0.289787 0)
(0.000297718 0.28083 0)
(-0.00093475 0.28771 0)
(-0.000646387 0.291926 0)
(-0.000304331 0.287796 0)
(0.000519965 0.28683 0)
(0.000365967 0.281142 0)
(0.000712614 0.286263 0)
(-9.69821e-05 0.289332 0)
(0.000633641 0.285406 0)
(0.000250029 0.277012 0)
(-0.000720106 0.286898 0)
(0.000119183 0.283923 0)
(-0.000274276 0.27833 0)
(-0.000221149 0.281516 0)
(-0.000923265 0.285949 0)
(-0.00095261 0.284328 0)
(7.67172e-05 0.287275 0)
(-0.000604342 0.283758 0)
(-0.000259001 0.280523 0)
(-0.000235401 0.280574 0)
(-0.000708838 0.283547 0)
(-0.00114304 0.282762 0)
(-0.000489305 0.281815 0)
(-0.00107966 0.281932 0)
(-0.000472946 0.281976 0)
(-0.000134865 0.28229 0)
(0.000505236 0.28221 0)
(0.000570293 0.281144 0)
(-0.000717776 0.281133 0)
(-0.00102814 0.28123 0)
(0.000169324 0.281934 0)
(-0.000309692 0.281562 0)
(-0.000760874 0.281519 0)
(-1.55565e-05 0.281403 0)
(0.000263083 0.281653 0)
(5.84953e-05 0.28147 0)
(5.26902e-06 0.281608 0)
(0.000271079 0.281539 0)
(-0.000366915 0.281552 0)
(-0.000334972 0.281519 0)
(0.000186978 0.281554 0)
(-9.21966e-05 0.281477 0)
(-9.40267e-05 0.281638 0)
(5.56991e-05 0.281348 0)
(-0.000170332 0.281669 0)
(0.000110739 0.281547 0)
(-0.000128184 0.281605 0)
(-1.158e-05 0.281271 0)
(5.42365e-05 0.281544 0)
(-5.21303e-05 0.281656 0)
(-5.3912e-05 0.281473 0)
(-0.000145529 0.281437 0)
(1.74051e-05 0.281437 0)
(-2.76132e-05 0.281575 0)
(8.98322e-05 0.281408 0)
(-1.02916e-05 0.281414 0)
(2.58466e-05 0.281425 0)
(4.25767e-05 0.28151 0)
(7.93359e-05 0.281498 0)
(9.1326e-05 0.281411 0)
(8.23442e-05 0.281696 0)
(1.83738e-05 0.281404 0)
(-0.000105874 0.281468 0)
(-0.000159152 0.281375 0)
(0.000331494 0.281607 0)
(0.000106759 0.281515 0)
(-0.000104046 0.281454 0)
(0.000108995 0.281455 0)
(-4.58509e-05 0.281443 0)
(-0.000256261 0.281384 0)
(2.93755e-05 0.281336 0)
(0.000320763 0.281459 0)
(-0.00033675 0.281639 0)
(0.000202964 0.281302 0)
(1.74483e-06 0.281477 0)
(-0.000192287 0.281675 0)
(0.000221789 0.281649 0)
(0.000707725 0.28162 0)
(0.000336297 0.281836 0)
(-0.000121424 0.281999 0)
(0.0012289 0.281229 0)
(0.000430468 0.281011 0)
(-0.000368247 0.281254 0)
(0.000329934 0.282012 0)
(0.000441757 0.281701 0)
(1.14642e-05 0.281557 0)
(0.000342019 0.281899 0)
(0.000381824 0.282001 0)
(0.00123311 0.28243 0)
(0.000985066 0.283535 0)
(0.000215307 0.280227 0)
(0.000501897 0.280436 0)
(0.000689768 0.28354 0)
(-0.00013393 0.287323 0)
(0.000868806 0.284424 0)
(0.00100728 0.285998 0)
(0.000687755 0.282247 0)
(0.000776138 0.277207 0)
(-0.000121496 0.283071 0)
(0.000593542 0.287101 0)
(-4.2471e-05 0.27798 0)
(-0.000437054 0.285592 0)
(-0.000282813 0.288794 0)
(-0.000776889 0.28415 0)
(7.67264e-05 0.283346 0)
(0.000320212 0.287457 0)
(0.000736768 0.298796 0)
(-0.000128271 0.298384 0)
(0.000452845 0.293328 0)
(-0.000160191 0.287722 0)
(0.000327311 0.296909 0)
(-0.000394068 0.292793 0)
(-6.8561e-06 0.284571 0)
(0.000322244 0.290403 0)
(-0.000599934 0.299296 0)
(-0.00151459 0.293238 0)
(-0.000510402 0.294672 0)
(0.00080076 0.295392 0)
(0.000375303 0.289437 0)
(-0.000537861 0.289552 0)
(-0.00041588 0.295498 0)
(-0.000569216 0.293665 0)
(-0.000929253 0.294526 0)
(-0.000168162 0.294575 0)
(-0.000127473 0.293036 0)
(-0.000300582 0.293416 0)
(0.000211554 0.293078 0)
(-1.57222e-05 0.293884 0)
(-0.000276321 0.293909 0)
(-0.000201558 0.293105 0)
(-0.000409528 0.292948 0)
(-0.000280664 0.295139 0)
(0.000109346 0.293082 0)
(-0.000122587 0.293121 0)
(-0.000205899 0.293122 0)
(3.89425e-05 0.294551 0)
(-0.000250392 0.293224 0)
(-0.000328097 0.29447 0)
(0.000167851 0.294357 0)
(6.25354e-06 0.293445 0)
(-0.000222724 0.293409 0)
(0.000113915 0.294608 0)
(-0.000196992 0.29319 0)
(-0.000141663 0.294536 0)
(-8.53195e-05 0.293463 0)
(-0.000188027 0.294621 0)
(7.34216e-07 0.293874 0)
(0.000108773 0.29359 0)
(-7.68605e-05 0.29456 0)
(-7.51139e-05 0.293942 0)
(0.00022294 0.294469 0)
(-7.21181e-05 0.293397 0)
(-8.32631e-05 0.293688 0)
(9.75317e-05 0.293548 0)
(-0.000102628 0.293803 0)
(1.91067e-05 0.294462 0)
(6.78438e-06 0.293408 0)
(5.82037e-05 0.294404 0)
(7.01734e-05 0.293433 0)
(-0.00021772 0.294398 0)
(9.50398e-05 0.294164 0)
(0.000142937 0.294476 0)
(0.000112485 0.294273 0)
(0.000137943 0.293466 0)