/*--------------------------------*- C++ -*----------------------------------*\
| =========                 |                                                 |
| \\      /  F ield         | OpenFOAM: The Open Source CFD Toolbox           |
|  \\    /   O peration     | Version:  2312                                  |
|   \\  /    A nd           | Website:  www.openfoam.com                      |
|    \\/     M anipulation  |                                                 |
\*---------------------------------------------------------------------------*/
FoamFile
{
    version     2.0;
    format      ascii;
    arch        "LSB;label=32;scalar=64";
    class       volVectorField;
    location    "1";
    object      U.water;
}
// * * * * * * * * * * * * * * * * * * * * * * * * * * * * * * * * * * * * * //

dimensions      [0 1 -1 0 0 0 0];

internalField   nonuniform List<vector> 
50000
(
(0.00848873 -0.0423071 0)
(-3.59466e-05 -0.0665863 0)
(-0.00346018 -0.0667566 0)
(-0.0141229 -0.057563 0)
(0.00548344 -0.0478853 0)
(0.00109677 -0.0587329 0)
(-0.0199437 -0.0773825 0)
(0.00197203 -0.0409842 0)
(0.022604 -0.0424207 0)
(0.0238738 -0.0592998 0)
(0.00422419 -0.0734355 0)
(-0.00185062 -0.0772418 0)
(-0.0184251 -0.0877185 0)
(-0.00611149 -0.049266 0)
(0.0199358 -0.0509256 0)
(0.0259786 -0.0900845 0)
(0.0115852 -0.095074 0)
(0.00467016 -0.131832 0)
(0.00315497 -0.126632 0)
(0.00500296 -0.141326 0)
(-0.00194219 -0.131976 0)
(-0.00685342 -0.128815 0)
(-0.00998859 -0.116602 0)
(0.00425279 -0.103192 0)
(0.00958883 -0.141946 0)
(0.00425003 -0.138364 0)
(0.00178177 -0.142715 0)
(0.00104257 -0.148277 0)
(0.000607331 -0.148299 0)
(-0.000767764 -0.148643 0)
(-0.000547104 -0.147506 0)
(0.000498187 -0.149147 0)
(0.00015126 -0.149083 0)
(-0.000439385 -0.14992 0)
(-0.000100697 -0.149726 0)
(-2.35118e-05 -0.149944 0)
(-0.000311197 -0.148712 0)
(-0.000880309 -0.150252 0)
(-0.000367766 -0.149181 0)
(1.17739e-05 -0.150384 0)
(-0.000311965 -0.150516 0)
(-0.000366284 -0.150447 0)
(-0.000187304 -0.150493 0)
(1.00266e-05 -0.150447 0)
(-0.000176224 -0.150819 0)
(4.88045e-05 -0.150511 0)
(2.90963e-05 -0.150814 0)
(7.05117e-05 -0.150664 0)
(3.64114e-05 -0.150443 0)
(-8.50226e-05 -0.150608 0)
(5.24351e-05 -0.150761 0)
(3.72311e-05 -0.150592 0)
(5.39355e-05 -0.150719 0)
(0.000131807 -0.150414 0)
(-2.69401e-05 -0.150673 0)
(0.00014153 -0.150543 0)
(0.000192413 -0.150599 0)
(0.000307247 -0.150613 0)
(0.000266845 -0.150324 0)
(0.000188158 -0.150125 0)
(-3.90615e-05 -0.150447 0)
(0.000173397 -0.149973 0)
(0.00031839 -0.150496 0)
(6.04965e-05 -0.148606 0)
(-0.000898326 -0.150536 0)
(-3.61329e-05 -0.145623 0)
(0.00132567 -0.150264 0)
(-0.000644508 -0.148618 0)
(-1.94912e-05 -0.146076 0)
(0.00143111 -0.148587 0)
(0.000719637 -0.148161 0)
(-8.22616e-05 -0.147694 0)
(-0.000835293 -0.14845 0)
(-0.00140799 -0.145653 0)
(-0.00289051 -0.139546 0)
(-0.00812984 -0.144322 0)
(-0.00526534 -0.107775 0)
(0.00907455 -0.113206 0)
(0.00774223 -0.131393 0)
(0.00265988 -0.131976 0)
(-0.00405287 -0.14193 0)
(-0.00331578 -0.127896 0)
(-0.00459652 -0.133108 0)
(-0.0108238 -0.0969225 0)
(-0.0248653 -0.0891669 0)
(-0.0201086 -0.0510021 0)
(0.00560754 -0.0480993 0)
(0.0199253 -0.086746 0)
(0.00564481 -0.0755199 0)
(-0.00289337 -0.0740038 0)
(-0.0208671 -0.0598386 0)
(-0.0254588 -0.0454088 0)
(-0.00150579 -0.040445 0)
(0.0220645 -0.0783606 0)
(-0.00186521 -0.0611256 0)
(-0.00280385 -0.0441137 0)
(0.0213824 -0.0555668 0)
(0.0100133 -0.0635914 0)
(0.00543322 -0.0855745 0)
(-0.000140091 -0.0908212 0)
(0.00122076 0.0136487 0)
(0.0227877 0.0582926 0)
(-0.0277045 0.0562009 0)
(-0.0216156 0.0329412 0)
(0.0030979 0.0125197 0)
(-0.0118759 0.0594739 0)
(-0.0364325 0.0548269 0)
(-0.00017495 -0.00671128 0)
(0.0100002 0.00507799 0)
(0.0415526 0.0517999 0)
(0.0276514 0.0648459 0)
(-0.0327277 0.0684749 0)
(-0.0355489 0.0693139 0)
(-0.00955423 0.00892594 0)
(0.00788441 0.0140043 0)
(0.0380073 0.0735909 0)
(0.00897692 0.0814106 0)
(-0.0188879 0.11411 0)
(-0.00236238 0.104442 0)
(0.0023951 0.122329 0)
(0.00656402 0.114232 0)
(-0.0131486 0.10946 0)
(-0.0125986 0.0916457 0)
(0.0005404 0.075128 0)
(0.00876825 0.121185 0)
(0.00682325 0.11872 0)
(-0.00371963 0.122141 0)
(-0.00194409 0.127649 0)
(0.000780348 0.127707 0)
(-0.00185004 0.127957 0)
(-0.00150151 0.126286 0)
(0.000914691 0.128138 0)
(0.000285936 0.128296 0)
(-0.000983162 0.129059 0)
(-0.000184394 0.128766 0)
(0.00104953 0.129069 0)
(-0.000330555 0.12785 0)
(-0.00187277 0.12937 0)
(-0.000423943 0.128132 0)
(1.72179e-05 0.129492 0)
(-0.000377101 0.129659 0)
(-0.000473102 0.129518 0)
(-0.000156109 0.129515 0)
(2.07131e-05 0.129549 0)
(-0.000231051 0.129923 0)
(7.02777e-05 0.129572 0)
(-1.80842e-05 0.129916 0)
(0.000177066 0.12977 0)
(6.97587e-05 0.129559 0)
(-0.000170272 0.129712 0)
(5.35167e-05 0.129847 0)
(5.4787e-05 0.129692 0)
(0.000105647 0.129815 0)
(0.000141446 0.129526 0)
(-9.51638e-05 0.129785 0)
(0.000140067 0.129592 0)
(0.000172202 0.129666 0)
(0.000409725 0.129697 0)
(0.000437077 0.129446 0)
(0.000165916 0.129251 0)
(-0.000146771 0.129562 0)
(0.000125206 0.129004 0)
(0.00133896 0.129629 0)
(-8.11714e-05 0.127785 0)
(-0.00163377 0.12968 0)
(8.93357e-05 0.124228 0)
(0.00169365 0.129504 0)
(-0.000335724 0.127864 0)
(-0.000595403 0.124682 0)
(0.00234646 0.127524 0)
(0.00213539 0.127502 0)
(-0.000524942 0.126982 0)
(0.000346069 0.127835 0)
(0.00379894 0.125075 0)
(-0.00473287 0.119659 0)
(-0.00761488 0.124491 0)
(-0.000629345 0.0805046 0)
(0.0104595 0.0875242 0)
(0.0134203 0.111817 0)
(-0.00323158 0.114186 0)
(-0.00213187 0.123465 0)
(0.00224377 0.105899 0)
(0.018135 0.11521 0)
(-0.00463156 0.0828196 0)
(-0.0372537 0.0728366 0)
(-0.0078349 0.0148055 0)
(0.0103881 0.00701663 0)
(0.0354546 0.0656399 0)
(0.0348723 0.0665247 0)
(-0.0201858 0.0651327 0)
(-0.0381187 0.0549568 0)
(-0.0123367 0.0095237 0)
(-0.000485902 -0.0109244 0)
(0.0362569 0.056987 0)
(0.0106675 0.0612218 0)
(-0.00474675 0.0023838 0)
(0.0268327 0.0277332 0)
(0.0236133 0.0546181 0)
(-0.0155529 0.0733866 0)
(0.00588031 0.0741494 0)
(-0.0202553 -0.0385648 0)
(0.00171928 -0.00360012 0)
(-0.0105792 0.00510036 0)
(-0.00148306 -0.0507076 0)
(-0.0179833 -0.0339662 0)
(0.00173731 0.0120849 0)
(-0.00237707 -0.0590118 0)
(-0.000512789 -0.0450953 0)
(0.00264573 -0.0407188 0)
(-0.0103662 -0.0390297 0)
(0.00385462 0.00722234 0)
(-0.0087019 -0.000141326 0)
(0.0102859 -0.0710472 0)
(-0.00867262 -0.0425983 0)
(-0.00253036 -0.0442678 0)
(-0.0136987 -0.0585849 0)
(-0.00452791 -0.0290969 0)
(0.00945336 -0.0885281 0)
(-0.00288098 -0.0991462 0)
(-0.0113944 -0.109695 0)
(-0.0048504 -0.0872033 0)
(-0.00198131 -0.0810263 0)
(0.00098035 -0.0855222 0)
(9.12783e-06 -0.074766 0)
(-0.00163864 -0.108619 0)
(-0.00161803 -0.0956807 0)
(0.00156082 -0.102424 0)
(0.00108171 -0.113923 0)
(-0.00123118 -0.11221 0)
(0.000599472 -0.111971 0)
(0.000566615 -0.112442 0)
(-0.000799091 -0.113982 0)
(-0.000637934 -0.112565 0)
(0.000244823 -0.114004 0)
(-0.000124339 -0.114546 0)
(-0.00118976 -0.114119 0)
(-0.000373954 -0.112084 0)
(0.00012905 -0.114476 0)
(-0.000239453 -0.113753 0)
(-0.000605567 -0.114612 0)
(-0.000284296 -0.114645 0)
(-0.000356284 -0.114668 0)
(-0.000177375 -0.114694 0)
(-2.73713e-05 -0.114678 0)
(-0.000174478 -0.115072 0)
(3.31231e-05 -0.114703 0)
(5.63844e-05 -0.115065 0)
(7.95863e-05 -0.114893 0)
(3.08898e-05 -0.114597 0)
(-9.85947e-05 -0.114814 0)
(5.52143e-05 -0.114999 0)
(4.16054e-05 -0.114832 0)
(7.39378e-05 -0.114973 0)
(0.000141293 -0.11461 0)
(-6.22581e-05 -0.114927 0)
(0.000108299 -0.114721 0)
(0.000206823 -0.114829 0)
(0.000336466 -0.114854 0)
(0.000281298 -0.114506 0)
(0.000150919 -0.114186 0)
(0.000338475 -0.114715 0)
(4.60464e-05 -0.114495 0)
(-0.000377691 -0.114731 0)
(0.000163537 -0.111929 0)
(0.000990349 -0.114886 0)
(6.23887e-06 -0.110522 0)
(-5.83295e-05 -0.114408 0)
(0.000600146 -0.111867 0)
(0.00107368 -0.110963 0)
(-0.000266126 -0.113579 0)
(-0.000716366 -0.111211 0)
(0.00151698 -0.110733 0)
(-0.000413704 -0.114099 0)
(-0.00162375 -0.107475 0)
(0.00211103 -0.0974601 0)
(0.00201039 -0.110613 0)
(-0.000384875 -0.0780175 0)
(0.000463935 -0.0821152 0)
(0.00219102 -0.0866535 0)
(0.00446284 -0.0871391 0)
(0.0103839 -0.108905 0)
(0.00501434 -0.0993215 0)
(-0.00998594 -0.0926809 0)
(0.00521291 -0.0313695 0)
(0.013005 -0.0547346 0)
(0.00399577 -0.0449352 0)
(0.0101316 -0.0413559 0)
(-0.00847148 -0.07117 0)
(0.00854986 -0.00159968 0)
(-0.00125181 0.00667014 0)
(0.00742361 -0.0306993 0)
(0.0015299 -0.0413644 0)
(-0.000392228 -0.0465834 0)
(-0.000230635 -0.0585646 0)
(-0.000207597 0.0112245 0)
(0.0146564 -0.0357354 0)
(-0.00639637 -0.0467352 0)
(-0.00302755 0.00964841 0)
(-0.012757 -0.0325204 0)
(0.0106691 -0.0649269 0)
(-0.0154599 0.019349 0)
(-0.000539691 0.0265481 0)
(0.00277182 0.0327177 0)
(0.00468785 0.0309045 0)
(-0.00717298 -0.0140305 0)
(0.0127148 0.0289596 0)
(0.00910222 0.0403252 0)
(0.00407033 -0.0232325 0)
(0.0103885 -0.00716606 0)
(-0.000952633 0.0339848 0)
(-0.00917932 0.0374808 0)
(0.00625688 0.0381308 0)
(-0.00174218 0.0542499 0)
(-0.00673889 -0.00306836 0)
(0.00229959 0.000510368 0)
(-0.0154969 0.0517125 0)
(0.000848366 0.0438861 0)
(0.038775 0.0825802 0)
(0.0118981 0.0832315 0)
(-0.0186944 0.0952552 0)
(-0.00148754 0.0803508 0)
(0.000530085 0.0745809 0)
(-0.0048985 0.0641877 0)
(0.00152448 0.0499289 0)
(0.00398217 0.0938557 0)
(0.000433437 0.0862069 0)
(0.00192263 0.0905196 0)
(0.0016128 0.0995242 0)
(-0.00111059 0.0978815 0)
(-0.000570693 0.0980653 0)
(0.000439828 0.0974111 0)
(-0.000239197 0.0993179 0)
(-0.000391906 0.0984538 0)
(0.000123188 0.0993561 0)
(0.000467453 0.0998623 0)
(-0.000739076 0.0994547 0)
(-0.000768928 0.0979036 0)
(-0.000374647 0.0997692 0)
(-0.000357773 0.0988914 0)
(-0.000228918 0.0999287 0)
(-0.000369229 0.100071 0)
(-0.000300533 0.0998109 0)
(-0.000154727 0.0997415 0)
(1.36316e-05 0.0999767 0)
(-0.000185854 0.100352 0)
(8.40749e-05 0.0998459 0)
(-1.25027e-05 0.100327 0)
(0.000135059 0.100195 0)
(5.01471e-05 0.100014 0)
(-0.000109711 0.100124 0)
(7.06004e-05 0.100198 0)
(3.72656e-05 0.100094 0)
(6.54578e-05 0.100219 0)
(0.000123173 0.0999832 0)
(-5.50281e-05 0.100259 0)
(0.000124206 0.0998064 0)
(0.000204249 0.0999672 0)
(0.000317149 0.100018 0)
(0.000274156 0.0999547 0)
(0.000232304 0.0996354 0)
(0.00011869 0.100066 0)
(6.53735e-05 0.0997 0)
(-0.000139673 0.10013 0)
(0.000434137 0.0977635 0)
(0.000103405 0.10019 0)
(-0.000333846 0.0951089 0)
(0.000547429 0.0999257 0)
(-5.14546e-05 0.0978849 0)
(0.000512908 0.0956366 0)
(0.000399844 0.098768 0)
(0.000487939 0.0975633 0)
(0.00168988 0.0967275 0)
(-0.00163468 0.0995741 0)
(-0.00186338 0.0947031 0)
(0.00120234 0.0874399 0)
(-0.00307799 0.0968228 0)
(-0.00228092 0.0542052 0)
(0.00515322 0.0597868 0)
(0.000698895 0.0784008 0)
(0.000925218 0.080857 0)
(0.0186688 0.0948017 0)
(-0.0105732 0.0835209 0)
(-0.0399997 0.0844414 0)
(-0.00187221 0.0449881 0)
(0.015023 0.0496164 0)
(-0.00102309 0.000856035 0)
(0.00661068 -0.0053401 0)
(0.00186179 0.051898 0)
(-0.00222305 0.036264 0)
(0.00764585 0.0384631 0)
(0.0021538 0.0337537 0)
(-0.00897911 -0.00241946 0)
(-0.00337418 -0.0241124 0)
(-0.00687396 0.0399537 0)
(-0.00997371 0.0306022 0)
(0.0111527 -0.0163068 0)
(-0.000230453 0.0324686 0)
(-0.000704605 0.0340993 0)
(0.0196724 0.0328467 0)
(0.0234294 0.0473913 0)
(0.00377243 -0.0114149 0)
(0.00917258 -0.00869663 0)
(0.00610717 0.0116348 0)
(0.0102022 -0.0268652 0)
(0.0015039 -0.0321196 0)
(0.00798796 0.0117136 0)
(-0.000708323 -0.0413892 0)
(0.0045166 -0.0369494 0)
(-0.00418439 -0.0287277 0)
(-0.0101025 -0.00564443 0)
(-0.00676009 0.0153286 0)
(0.000706042 0.0116839 0)
(0.00305314 -0.0481471 0)
(-0.00155026 -0.0331676 0)
(-0.0116132 -0.0284671 0)
(-0.00986486 -0.0348801 0)
(-0.0109137 -0.0426704 0)
(-0.0208085 -0.0704006 0)
(-0.00503751 -0.0417464 0)
(0.00436451 -0.0773038 0)
(-0.000735829 -0.0720834 0)
(-0.00141847 -0.052765 0)
(0.00374486 -0.0615849 0)
(-0.00325561 -0.0558045 0)
(-0.00516446 -0.0810876 0)
(-0.000782245 -0.0679047 0)
(-0.00187926 -0.0755053 0)
(-0.000928693 -0.0851519 0)
(-0.000499585 -0.0831192 0)
(2.82261e-05 -0.0846465 0)
(-0.000477051 -0.084829 0)
(-0.000523149 -0.0858426 0)
(-0.000279502 -0.0847063 0)
(-0.000397167 -0.0857577 0)
(-0.000550505 -0.086349 0)
(-0.000263648 -0.0852353 0)
(-6.84583e-05 -0.0841142 0)
(-0.000212821 -0.0860624 0)
(-0.000205729 -0.0856739 0)
(-0.000618886 -0.0861184 0)
(-0.000265592 -0.0862542 0)
(-0.000328656 -0.0860345 0)
(-0.000200419 -0.0861016 0)
(-3.08333e-05 -0.0861603 0)
(-0.000155188 -0.0865756 0)
(3.70846e-05 -0.0860836 0)
(5.23101e-05 -0.086531 0)
(0.000116862 -0.0864036 0)
(1.41463e-05 -0.0861371 0)
(-0.000123702 -0.0863116 0)
(4.26505e-05 -0.0864044 0)
(4.79379e-05 -0.0862861 0)
(0.00011011 -0.086431 0)
(0.000143688 -0.0861451 0)
(-0.000107994 -0.0864688 0)
(0.000134757 -0.0860723 0)
(0.000138865 -0.0862197 0)
(0.000442683 -0.0862611 0)
(0.000336026 -0.0860938 0)
(0.000128894 -0.0857837 0)
(0.000230824 -0.0862229 0)
(2.68222e-05 -0.0862097 0)
(-3.74491e-05 -0.0864231 0)
(-0.000151002 -0.0838747 0)
(0.000632203 -0.0862339 0)
(0.000325017 -0.0828963 0)
(0.000199288 -0.0862163 0)
(0.00066436 -0.083866 0)
(0.000509782 -0.0831711 0)
(0.000506708 -0.0856517 0)
(0.000246278 -0.0839728 0)
(0.000572736 -0.081747 0)
(0.00101 -0.0847642 0)
(0.00213381 -0.0807922 0)
(0.00042284 -0.0697192 0)
(0.00498758 -0.0816617 0)
(0.00494723 -0.0581721 0)
(-0.00307284 -0.0594936 0)
(0.000694083 -0.0575259 0)
(0.000796954 -0.071452 0)
(-0.00380111 -0.0769205 0)
(0.00531395 -0.0407464 0)
(0.0221656 -0.0719662 0)
(0.0118208 -0.0454272 0)
(0.0108072 -0.0321635 0)
(0.0110806 -0.0292776 0)
(0.0038393 -0.0309249 0)
(-0.000454289 -0.0523384 0)
(-2.97715e-05 0.0102376 0)
(0.00650488 0.0166677 0)
(0.0110754 -0.000974295 0)
(0.00625611 -0.0289544 0)
(-0.00498526 -0.0393536 0)
(-0.00165348 -0.0408633 0)
(-0.00467938 0.00848015 0)
(-0.000613863 -0.0338051 0)
(-0.0118967 -0.0203076 0)
(0.00250692 0.00329377 0)
(-0.0146399 -0.0373692 0)
(0.00283032 0.000777471 0)
(0.0086034 -0.00395297 0)
(0.00556701 0.0155968 0)
(-0.000611113 0.0225851 0)
(0.00438535 0.0271976 0)
(-0.00163472 -0.0223038 0)
(0.00876901 0.0237626 0)
(-0.00119513 0.0329439 0)
(-0.000649167 -0.0297978 0)
(-0.00150781 -0.0037913 0)
(-0.00925017 0.0231615 0)
(-0.00540316 0.0221866 0)
(0.0139036 0.0224567 0)
(0.00743134 0.0411751 0)
(-0.00642716 -0.0043282 0)
(0.000702539 -0.0062363 0)
(-0.00164575 0.0332641 0)
(0.0151378 0.0409838 0)
(0.0050627 0.060864 0)
(-0.0037866 0.0470131 0)
(0.0102857 0.0687709 0)
(-0.00573134 0.0628113 0)
(-0.00268031 0.0510588 0)
(0.0003564 0.0432798 0)
(0.00107835 0.0344261 0)
(0.00211282 0.0681406 0)
(-0.00101745 0.0614506 0)
(0.00251664 0.065451 0)
(0.00113922 0.0724812 0)
(-0.00062543 0.0709047 0)
(0.000202963 0.0714819 0)
(0.000288381 0.0712277 0)
(-0.000369935 0.0724097 0)
(-0.000379114 0.0718462 0)
(-0.00013146 0.0723391 0)
(-0.000452567 0.0731632 0)
(-0.00111459 0.0722022 0)
(-0.000393089 0.071495 0)
(6.25995e-05 0.0726457 0)
(-0.000278728 0.0723214 0)
(-0.000314436 0.0727496 0)
(-0.000371385 0.0730818 0)
(-0.000313128 0.0725509 0)
(-0.000122262 0.0725453 0)
(3.44406e-05 0.0728287 0)
(-0.000159637 0.0732438 0)
(6.16964e-05 0.0725937 0)
(4.60367e-06 0.0731923 0)
(0.000113482 0.0730358 0)
(2.52649e-05 0.0729955 0)
(-0.0001066 0.0729424 0)
(7.69258e-05 0.0729994 0)
(3.96464e-05 0.0729234 0)
(4.09396e-05 0.0730695 0)
(0.000110441 0.0729552 0)
(-6.70143e-05 0.0731661 0)
(0.000103148 0.0725117 0)
(0.000201334 0.0727091 0)
(0.00030396 0.0727897 0)
(0.000239748 0.0729813 0)
(0.000286324 0.0726813 0)
(0.000233776 0.073014 0)
(8.88273e-05 0.0729151 0)
(-0.000568968 0.0731629 0)
(0.000204354 0.0711352 0)
(0.000501283 0.0729783 0)
(0.000379426 0.0690101 0)
(0.00071726 0.0729243 0)
(-7.67877e-05 0.0712596 0)
(0.000729057 0.0690641 0)
(0.000314348 0.0722535 0)
(-0.000230013 0.0712746 0)
(0.00145089 0.0697689 0)
(0.000620513 0.0723727 0)
(-0.00192199 0.0691314 0)
(-4.82307e-05 0.062456 0)
(-0.00226392 0.0696721 0)
(-0.00131235 0.0374946 0)
(0.000396876 0.0403948 0)
(0.00296231 0.0539979 0)
(0.00359137 0.0625862 0)
(-0.00943087 0.0681487 0)
(0.00491735 0.0466664 0)
(-0.00361234 0.0611394 0)
(-0.0163071 0.0426342 0)
(0.00173667 0.0320816 0)
(0.000448267 -0.00592965 0)
(0.00797248 -0.00898862 0)
(-0.00640427 0.0422194 0)
(-0.0131584 0.0225563 0)
(0.0040956 0.0222529 0)
(0.00903873 0.0229136 0)
(0.00205014 0.00275942 0)
(0.000433592 -0.027249 0)
(0.00143718 0.0288193 0)
(-0.00652637 0.0225208 0)
(0.00307716 -0.0208883 0)
(-0.00505963 0.0214734 0)
(0.0106902 0.0246654 0)
(-0.0148756 0.0238076 0)
(-0.0121656 0.0178096 0)
(-0.000355719 -0.0202381 0)
(0.00336856 0.00752105 0)
(-0.00451996 0.016981 0)
(0.00271668 -0.0186666 0)
(-0.00141446 -0.0319923 0)
(0.00073304 0.0168839 0)
(-0.000324013 -0.0271352 0)
(0.0018892 -0.0323255 0)
(-0.00515646 -0.0195952 0)
(-0.00794079 0.00576315 0)
(-0.00428697 0.0039773 0)
(-0.00223716 0.00760461 0)
(0.000582185 -0.0215931 0)
(0.00338133 -0.0250686 0)
(-0.0077286 -0.022625 0)
(-0.00860568 -0.0287382 0)
(-0.0145259 -0.0390684 0)
(-0.0106031 -0.043424 0)
(-0.00495295 -0.0297803 0)
(-0.00424433 -0.056201 0)
(0.00103925 -0.0479266 0)
(0.00166004 -0.0390847 0)
(0.00236828 -0.0454389 0)
(-0.00275929 -0.0422304 0)
(-0.0067084 -0.0592261 0)
(-0.00155875 -0.0490387 0)
(-0.00312122 -0.0549918 0)
(-0.00169056 -0.0611856 0)
(-0.000357151 -0.0598598 0)
(-0.000601396 -0.0618106 0)
(-0.000706882 -0.0616777 0)
(-0.000338417 -0.0622923 0)
(-0.000127391 -0.0615744 0)
(-0.000372302 -0.0622575 0)
(-0.000192948 -0.0627165 0)
(-0.000121521 -0.0617909 0)
(-0.000265245 -0.0612857 0)
(-0.00046613 -0.0624301 0)
(-0.000173265 -0.0623352 0)
(-0.000534223 -0.0624007 0)
(-0.000293114 -0.0626676 0)
(-0.000226491 -0.0622877 0)
(-0.000124784 -0.062405 0)
(-1.63112e-05 -0.0624541 0)
(-0.000167417 -0.0628598 0)
(6.76644e-05 -0.0623616 0)
(1.42368e-05 -0.0628018 0)
(0.000115008 -0.0626767 0)
(8.95997e-06 -0.0625014 0)
(-0.000117657 -0.0625552 0)
(3.63242e-05 -0.0626749 0)
(2.78895e-05 -0.0625106 0)
(0.000147512 -0.0627269 0)
(0.000112716 -0.062484 0)
(-0.000131065 -0.0628089 0)
(0.000136873 -0.0622385 0)
(0.000113774 -0.0625226 0)
(0.000478116 -0.0624319 0)
(0.000339312 -0.0625864 0)
(5.63245e-05 -0.0621645 0)
(0.000128892 -0.0626013 0)
(-6.70023e-06 -0.0625059 0)
(0.000149257 -0.0629079 0)
(-0.00015326 -0.0608366 0)
(0.000722988 -0.0627064 0)
(4.43472e-05 -0.0600509 0)
(0.000125006 -0.0626679 0)
(0.00065451 -0.0607059 0)
(0.000168093 -0.0603291 0)
(0.000833222 -0.0620226 0)
(0.00104365 -0.0615859 0)
(0.000443083 -0.0590206 0)
(0.0011205 -0.0607387 0)
(0.00339295 -0.0586288 0)
(0.0012147 -0.0504215 0)
(0.00650657 -0.0588252 0)
(0.00522761 -0.0442255 0)
(-0.00243676 -0.0444473 0)
(-0.0024105 -0.0417581 0)
(9.10037e-05 -0.0475797 0)
(0.00420394 -0.0574426 0)
(0.00477403 -0.0290306 0)
(0.0108177 -0.0430156 0)
(0.014887 -0.0411748 0)
(0.00960787 -0.0278191 0)
(0.00746081 -0.0247638 0)
(-0.00259413 -0.0220408 0)
(0.000956616 -0.0275143 0)
(0.00208288 0.00788335 0)
(0.00409728 0.00681112 0)
(0.00880523 0.00725222 0)
(0.0061504 -0.0198873 0)
(-0.00253216 -0.0348035 0)
(0.000524174 -0.0281646 0)
(0.000726709 0.0118448 0)
(0.00318944 -0.0304085 0)
(-0.00469157 -0.0200429 0)
(0.0054251 0.0153285 0)
(-0.00755505 -0.00501959 0)
(0.00765269 -0.0209558 0)
(0.000386142 -0.0120795 0)
(0.00148559 0.0158898 0)
(0.00150347 0.0199936 0)
(0.00379834 0.0192584 0)
(-0.00284608 -0.0252555 0)
(0.00434733 0.02093 0)
(0.00190708 0.0243547 0)
(-0.001899 -0.0287887 0)
(-0.000222367 -1.80369e-05 0)
(-0.00506683 0.0185184 0)
(-0.00197962 0.0152647 0)
(0.00616416 0.0167261 0)
(0.0039192 0.0261938 0)
(-4.75888e-05 -0.00335011 0)
(0.00250585 -0.00729549 0)
(0.00507205 0.0251938 0)
(0.00320631 0.0342317 0)
(-0.00683813 0.041857 0)
(0.00373031 0.0337909 0)
(0.00619116 0.0487035 0)
(-0.00718583 0.0440461 0)
(-7.55034e-05 0.0370847 0)
(0.00101415 0.0296054 0)
(0.00140064 0.0255755 0)
(3.79532e-05 0.0489167 0)
(-0.00258342 0.0443306 0)
(0.00182252 0.0469967 0)
(0.00110807 0.0515648 0)
(-0.000246748 0.0503976 0)
(8.12835e-05 0.051144 0)
(-0.000374956 0.0507381 0)
(-0.000480024 0.0515266 0)
(-0.000257345 0.051253 0)
(-0.000161126 0.0515337 0)
(-0.000335289 0.0522452 0)
(-0.000705492 0.0514915 0)
(0.000364733 0.0511145 0)
(0.000416473 0.0517539 0)
(-0.0002928 0.0517171 0)
(-0.000244691 0.0517474 0)
(-0.000214654 0.0520854 0)
(-0.000332239 0.0514761 0)
(-0.000155343 0.051511 0)
(3.00097e-05 0.0518173 0)
(-0.000156304 0.0521919 0)
(0.000105859 0.0515475 0)
(5.66374e-06 0.0521498 0)
(9.17491e-05 0.0520112 0)
(1.29714e-05 0.0520975 0)
(-9.74303e-05 0.0518771 0)
(7.30059e-05 0.0519565 0)
(-2.1213e-06 0.0518325 0)
(5.23287e-05 0.0520632 0)
(9.01583e-05 0.0520169 0)
(-8.56688e-05 0.0522215 0)
(0.000110263 0.0513405 0)
(0.000210532 0.0516963 0)
(0.000219647 0.0516546 0)
(0.000285405 0.0522714 0)
(0.000276782 0.0517952 0)
(0.000186706 0.0521876 0)
(0.00019057 0.0519946 0)
(-0.000869573 0.0524347 0)
(-0.000683063 0.0503619 0)
(0.000412534 0.0521382 0)
(0.000275458 0.0489218 0)
(0.000478416 0.052015 0)
(-0.000143733 0.0507423 0)
(0.000720763 0.0488793 0)
(0.0011025 0.0512153 0)
(0.000200598 0.05132 0)
(0.000721015 0.0495752 0)
(5.3644e-05 0.0515169 0)
(-0.00106608 0.0491175 0)
(0.00127412 0.0445817 0)
(-0.000594195 0.0487507 0)
(-0.00118305 0.0280366 0)
(-0.000982208 0.0287351 0)
(0.000215611 0.0386296 0)
(0.00551945 0.0436993 0)
(-0.00595214 0.0488814 0)
(-0.00229575 0.0333921 0)
(0.00776625 0.0412647 0)
(-0.00332339 0.0356393 0)
(-0.00423872 0.02481 0)
(-0.00169816 -0.00641862 0)
(0.00193908 -0.00981533 0)
(-0.00366605 0.0286041 0)
(-0.00710136 0.0175816 0)
(0.00141201 0.0142432 0)
(0.00548878 0.0183894 0)
(0.000953286 0.00829589 0)
(0.00139639 -0.0262584 0)
(-0.000922582 0.0189081 0)
(-0.00309472 0.0183808 0)
(0.00313842 -0.0217272 0)
(-0.00226034 0.0152222 0)
(-0.00236026 0.0232624 0)
(-0.000443347 0.0145516 0)
(0.000257788 0.0136335 0)
(-0.00140581 -0.0189211 0)
(-0.000687292 0.00995964 0)
(-0.000619224 0.0162038 0)
(0.000624786 -0.00918001 0)
(0.00141959 -0.0307811 0)
(-0.00243258 0.0152706 0)
(0.000101732 -0.016913 0)
(0.00131046 -0.0289148 0)
(-0.00252497 -0.0158848 0)
(-0.00434827 0.0103021 0)
(-0.00360006 -0.00178084 0)
(-0.00328727 0.0055725 0)
(-0.000235811 -0.0100551 0)
(0.00270166 -0.0216384 0)
(-0.00667517 -0.0194541 0)
(-0.00982733 -0.0195582 0)
(-0.00977439 -0.0248953 0)
(-0.00619194 -0.0321404 0)
(-0.00512046 -0.0285542 0)
(-0.00442639 -0.0365191 0)
(0.00236069 -0.0316267 0)
(0.00172126 -0.0316327 0)
(7.76268e-05 -0.0335713 0)
(-0.00347072 -0.0319594 0)
(-0.00465433 -0.0417887 0)
(-0.00093154 -0.0360339 0)
(-0.00322462 -0.040364 0)
(-0.00177823 -0.0430348 0)
(-0.000325647 -0.0422326 0)
(-0.000902415 -0.0437086 0)
(-0.000455059 -0.0438104 0)
(-0.000181192 -0.0439565 0)
(-0.000626881 -0.0437396 0)
(-0.000120986 -0.0438575 0)
(-8.18386e-05 -0.0445087 0)
(-0.000106581 -0.0436695 0)
(-0.000395495 -0.0437798 0)
(-0.000923106 -0.0439022 0)
(-0.000346926 -0.0443051 0)
(-0.000473686 -0.0439205 0)
(-0.000294242 -0.0443656 0)
(-0.000151739 -0.0438566 0)
(-4.81749e-05 -0.0442297 0)
(-0.000348875 -0.0440343 0)
(-0.00011128 -0.0445001 0)
(0.000312614 -0.0439982 0)
(-9.57303e-05 -0.0444426 0)
(3.89986e-05 -0.0442703 0)
(5.37391e-05 -0.0441931 0)
(-6.26208e-05 -0.0441191 0)
(5.85406e-06 -0.0443256 0)
(-9.88544e-05 -0.0440586 0)
(0.000220776 -0.044363 0)
(0.000154343 -0.0441236 0)
(-0.000470081 -0.0444397 0)
(0.000156511 -0.0438149 0)
(0.000420086 -0.0441463 0)
(0.000498401 -0.0440337 0)
(0.000261889 -0.0443154 0)
(0.000239549 -0.0438979 0)
(0.00022671 -0.0442412 0)
(-5.19124e-05 -0.044064 0)
(0.000467078 -0.0444281 0)
(-1.12781e-05 -0.0430735 0)
(0.000465301 -0.0444908 0)
(0.000313619 -0.0426019 0)
(0.000135504 -0.0441927 0)
(0.00119356 -0.0430362 0)
(0.000118264 -0.0429673 0)
(0.000103959 -0.0437769 0)
(0.00115487 -0.0437305 0)
(0.000634044 -0.0415367 0)
(0.000891445 -0.0429093 0)
(0.00316533 -0.0417779 0)
(0.00146118 -0.0362509 0)
(0.004931 -0.0412514 0)
(0.00503769 -0.0337869 0)
(-0.000906845 -0.0332269 0)
(-0.00214113 -0.0328365 0)
(-0.00110945 -0.031732 0)
(0.00468909 -0.0393803 0)
(0.00453015 -0.0282774 0)
(0.00594845 -0.0307226 0)
(0.010358 -0.0272602 0)
(0.0105222 -0.0194138 0)
(0.00647408 -0.0224513 0)
(-0.00315271 -0.0179784 0)
(0.00102017 -0.0137088 0)
(0.00334775 0.00658896 0)
(0.00367269 0.000646716 0)
(0.00483692 0.0101284 0)
(0.00401258 -0.0156457 0)
(-0.00111763 -0.0313575 0)
(0.000338075 -0.0196687 0)
(0.0027573 0.0111673 0)
(-0.000624926 -0.0288207 0)
(-0.000857952 -0.010106 0)
(-0.00145465 0.0191089 0)
(-0.00144557 -0.00336566 0)
(-0.000158914 -0.017962 0)
(0.00022528 -0.0110706 0)
(0.000113966 0.013393 0)
(0.0039932 0.0174646 0)
(0.00253857 0.0137264 0)
(-0.000516964 -0.0246479 0)
(0.0011445 0.0210112 0)
(-0.000713542 0.0160641 0)
(-0.00156024 -0.0285716 0)
(-0.000475907 0.00210678 0)
(-0.00268289 0.0177847 0)
(0.000573127 0.0124738 0)
(-0.000739097 0.0131005 0)
(0.00253113 0.0170475 0)
(0.00207058 -0.00222819 0)
(0.00274596 -0.00554263 0)
(0.00198991 0.0186757 0)
(-0.000166567 0.0246699 0)
(-0.00226102 0.0301046 0)
(-0.000120252 0.0261167 0)
(0.00103995 0.032782 0)
(-0.00161839 0.0304033 0)
(0.000480074 0.0280911 0)
(-0.000153216 0.0207526 0)
(0.000555514 0.0185811 0)
(-0.000232035 0.0336279 0)
(-0.000885632 0.0320905 0)
(0.000408052 0.0335881 0)
(-0.0013379 0.0355092 0)
(-0.000211375 0.0352582 0)
(-0.000224858 0.0354366 0)
(-0.000489774 0.0352564 0)
(-0.000378941 0.035546 0)
(-4.04891e-05 0.035762 0)
(-2.7026e-05 0.0354119 0)
(-0.000280268 0.036541 0)
(-0.000665342 0.0355904 0)
(-0.000501138 0.0358889 0)
(-0.000230416 0.0356501 0)
(-0.000100856 0.0361054 0)
(-0.00031674 0.0356505 0)
(-0.000239912 0.0361976 0)
(-0.000370734 0.0353853 0)
(-0.000276176 0.0357648 0)
(0.000313913 0.0357802 0)
(-0.000103571 0.0362242 0)
(-3.30451e-05 0.0355636 0)
(6.23455e-05 0.0363029 0)
(4.12419e-05 0.0359936 0)
(-5.07514e-05 0.0362864 0)
(-5.70315e-05 0.0358447 0)
(-8.09002e-06 0.0360979 0)
(2.21131e-06 0.0357726 0)
(0.000112846 0.036146 0)
(5.33925e-05 0.0361537 0)
(1.54727e-05 0.0363215 0)
(2.56133e-05 0.0352297 0)
(-2.26892e-05 0.0357424 0)
(0.000648531 0.035736 0)
(0.000218914 0.036459 0)
(-0.000146094 0.0359374 0)
(0.000145829 0.0362973 0)
(0.000122979 0.036053 0)
(-0.000118586 0.0364684 0)
(0.000590456 0.0346934 0)
(0.000686203 0.0361307 0)
(-0.000198695 0.033946 0)
(0.00017295 0.0358515 0)
(8.54276e-05 0.0353214 0)
(0.000761574 0.0338466 0)
(0.000826826 0.0352436 0)
(0.000400021 0.0356898 0)
(0.000685613 0.0346226 0)
(0.00128276 0.0358401 0)
(5.78147e-05 0.034169 0)
(0.000679882 0.0317173 0)
(0.000519082 0.0325594 0)
(-0.000305138 0.0212952 0)
(-0.000295151 0.0210533 0)
(-0.00111588 0.028302 0)
(0.00190577 0.0299767 0)
(-0.000348508 0.0336903 0)
(7.82181e-05 0.0260812 0)
(0.00257345 0.0286247 0)
(0.000104843 0.0259454 0)
(-0.0010783 0.0188363 0)
(-0.0025619 -0.00378614 0)
(-0.000766742 -0.00949381 0)
(-0.00175128 0.0184048 0)
(0.000654583 0.0144552 0)
(-0.00017514 0.0108802 0)
(0.00376146 0.0169676 0)
(0.00100122 0.0108356 0)
(0.00182472 -0.0249825 0)
(0.00124018 0.0109598 0)
(-0.000862136 0.0182253 0)
(0.000954534 -0.0212146 0)
(-0.000516691 0.0123966 0)
(-0.00273572 0.0202485 0)
(0.00180781 0.01013 0)
(0.00148322 0.00897608 0)
(0.00216366 -0.0193447 0)
(0.00152096 0.00725034 0)
(-0.000461418 0.0143951 0)
(0.000757414 -0.00157062 0)
(0.00114321 -0.0288406 0)
(-0.00267404 0.0170936 0)
(-9.48365e-05 -0.0116738 0)
(7.97557e-05 -0.0266116 0)
(0.000453473 -0.0139522 0)
(-0.00223247 0.0113314 0)
(-0.00391006 -0.00196721 0)
(-0.00282177 0.00583587 0)
(-0.00378992 -0.00857792 0)
(-0.000778707 -0.019531 0)
(-0.00430557 -0.0153446 0)
(-0.00590425 -0.010917 0)
(-0.0080799 -0.0157589 0)
(-0.0044636 -0.0241685 0)
(-0.00510894 -0.0236227 0)
(-0.00303009 -0.0255109 0)
(0.000982461 -0.0225122 0)
(0.00190086 -0.023266 0)
(0.00148002 -0.0247827 0)
(-0.00441603 -0.0243124 0)
(-0.00487189 -0.0290349 0)
(-0.000245266 -0.0260183 0)
(-0.00281673 -0.027926 0)
(-0.00213419 -0.0298172 0)
(-0.000408816 -0.0295681 0)
(0.000267797 -0.0301131 0)
(6.33372e-05 -0.0303835 0)
(-0.000251049 -0.0304233 0)
(0.000550103 -0.0302387 0)
(-0.00139193 -0.0301942 0)
(-0.000937142 -0.0305979 0)
(0.000754118 -0.0299977 0)
(-0.000268594 -0.03046 0)
(-0.000442031 -0.0302688 0)
(8.92719e-05 -0.0307999 0)
(-0.000624305 -0.0301596 0)
(0.000341103 -0.0306021 0)
(-0.00011841 -0.0301767 0)
(3.87481e-06 -0.0306837 0)
(-0.000137809 -0.0303482 0)
(-0.000182254 -0.0307023 0)
(-0.000252238 -0.0303733 0)
(-0.000350221 -0.0307083 0)
(6.69035e-05 -0.03056 0)
(-0.00020779 -0.0304789 0)
(0.000315854 -0.030364 0)
(-5.54806e-06 -0.0306514 0)
(3.90653e-05 -0.0303204 0)
(4.09973e-05 -0.0306836 0)
(0.000179175 -0.0303716 0)
(0.000399776 -0.0307573 0)
(0.000259753 -0.0300601 0)
(0.000136092 -0.0305885 0)
(-0.000492377 -0.0303284 0)
(-0.00039168 -0.0305424 0)
(0.00103997 -0.0301586 0)
(0.000266623 -0.0306257 0)
(-0.000134209 -0.0302306 0)
(0.000680148 -0.0308725 0)
(-0.000257639 -0.0296596 0)
(-0.000803532 -0.0307452 0)
(0.000302804 -0.0292891 0)
(0.00127367 -0.0306434 0)
(-0.0003328 -0.0296909 0)
(0.000741647 -0.0301757 0)
(6.05961e-05 -0.0300669 0)
(0.000145903 -0.0303385 0)
(0.000847654 -0.0287156 0)
(0.0018385 -0.0299671 0)
(0.00260478 -0.0286249 0)
(0.000629974 -0.0257623 0)
(0.00514409 -0.0283342 0)
(0.00372329 -0.0257462 0)
(-0.00115388 -0.0242448 0)
(0.000858242 -0.0244688 0)
(0.000368773 -0.0231784 0)
(0.00206389 -0.0279556 0)
(0.0026324 -0.0232925 0)
(0.00342732 -0.0226373 0)
(0.00895594 -0.0187418 0)
(0.00684476 -0.0109962 0)
(0.00487912 -0.0187879 0)
(0.00060363 -0.0162834 0)
(0.00402553 -0.0105852 0)
(0.00298717 0.00693893 0)
(0.00306692 -5.07513e-05 0)
(0.00228068 0.0106667 0)
(0.00192276 -0.0126476 0)
(0.00161382 -0.0301572 0)
(-0.000467134 -0.0143832 0)
(0.00175091 0.013523 0)
(-0.000946382 -0.0278421 0)
(0.0001203 -0.00301486 0)
(-0.00103431 0.0168377 0)
(-0.00356061 -0.00505052 0)
(-0.00239926 -0.0123392 0)
(-0.00140079 -0.0165593 0)
(0.000129161 0.0155775 0)
(-0.00232453 0.0164995 0)
(-0.000738809 0.0102828 0)
(0.000356162 -0.0227386 0)
(0.00105304 0.0213267 0)
(-8.07918e-05 0.0108278 0)
(-0.0004523 -0.0303319 0)
(-0.0013939 0.00171269 0)
(-0.00200346 0.0200816 0)
(-0.00363031 0.0108979 0)
(-0.00121937 0.0117137 0)