/*--------------------------------*- C++ -*----------------------------------*\
| =========                 |                                                 |
| \\      /  F ield         | OpenFOAM: The Open Source CFD Toolbox           |
|  \\    /   O peration     | Version:  2312                                  |
|   \\  /    A nd           | Website:  www.openfoam.com                      |
|    \\/     M anipulation  |                                                 |
\*---------------------------------------------------------------------------*/
FoamFile
{
    version     2.0;
    format      ascii;
    arch        "LSB;label=32;scalar=64";
    class       volVectorField;
    location    "1";
    object      U.waterMean;
}
// * * * * * * * * * * * * * * * * * * * * * * * * * * * * * * * * * * * * * //

dimensions      [0 1 -1 0 0 0 0];

internalField   nonuniform List<vector> 
50000
(
(0.00354541 -0.070169 0)
(0.0018576 -0.0810169 0)
(-0.00121796 -0.0782903 0)
(-0.0073464 -0.078376 0)
(0.00025324 -0.0618987 0)
(0.00355732 -0.078305 0)
(-0.00817451 -0.082516 0)
(0.00106276 -0.0606338 0)
(0.00985841 -0.0727609 0)
(0.00670885 -0.0819946 0)
(0.00251605 -0.0896126 0)
(0.000196535 -0.0885708 0)
(-0.00485295 -0.0924385 0)
(-0.00299784 -0.0774456 0)
(0.00557634 -0.0793143 0)
(0.00646895 -0.0924956 0)
(0.00190855 -0.0945477 0)
(0.00122071 -0.101795 0)
(0.000760153 -0.101599 0)
(0.000762083 -0.10352 0)
(-0.000150818 -0.102369 0)
(-0.00142578 -0.101786 0)
(-0.00169359 -0.0992007 0)
(0.000709846 -0.0973925 0)
(0.00166697 -0.103213 0)
(0.00104611 -0.103292 0)
(0.000315423 -0.103872 0)
(0.000276218 -0.104583 0)
(0.000231561 -0.104705 0)
(-0.000102226 -0.104572 0)
(-2.28752e-05 -0.104464 0)
(0.000201105 -0.104507 0)
(8.62476e-05 -0.104599 0)
(-9.61773e-05 -0.104562 0)
(-2.14079e-05 -0.104715 0)
(1.01295e-05 -0.104775 0)
(-0.000113447 -0.104636 0)
(-0.000363628 -0.104849 0)
(-0.000148155 -0.10459 0)
(-6.40964e-05 -0.10473 0)
(-0.000142358 -0.104903 0)
(-0.000171747 -0.104822 0)
(-7.20773e-05 -0.104906 0)
(2.00965e-05 -0.104807 0)
(-7.6806e-05 -0.104994 0)
(4.19934e-05 -0.104866 0)
(1.29661e-05 -0.104939 0)
(5.75672e-05 -0.104944 0)
(7.55211e-05 -0.104786 0)
(-6.18747e-05 -0.104962 0)
(3.0425e-05 -0.104837 0)
(4.3105e-05 -0.104925 0)
(4.58302e-05 -0.104843 0)
(8.20547e-05 -0.104881 0)
(-4.57979e-05 -0.104853 0)
(5.65143e-05 -0.104906 0)
(6.58356e-05 -0.104806 0)
(0.000137758 -0.104924 0)
(0.000131329 -0.104748 0)
(5.07144e-05 -0.104835 0)
(-6.49649e-07 -0.104712 0)
(-4.29349e-06 -0.104835 0)
(8.53086e-05 -0.104941 0)
(-4.64705e-05 -0.104676 0)
(-0.000304097 -0.104953 0)
(-6.64953e-05 -0.103992 0)
(0.000289761 -0.10474 0)
(-0.000163683 -0.10459 0)
(-8.91331e-05 -0.104006 0)
(0.000282751 -0.104549 0)
(0.000145158 -0.104517 0)
(-4.01165e-05 -0.104586 0)
(-0.000263271 -0.104743 0)
(-0.000223678 -0.104228 0)
(-0.000873993 -0.103364 0)
(-0.00141025 -0.103519 0)
(-0.000821462 -0.098374 0)
(0.00150975 -0.0986189 0)
(0.00162651 -0.102247 0)
(0.000266584 -0.102467 0)
(-0.000546812 -0.103385 0)
(-0.000735602 -0.101805 0)
(-0.00108005 -0.101633 0)
(-0.00159855 -0.0950832 0)
(-0.00600636 -0.0924937 0)
(-0.00563473 -0.0797987 0)
(0.00302419 -0.0768767 0)
(0.00538571 -0.0927279 0)
(0.000786975 -0.08824 0)
(-0.00229915 -0.0907169 0)
(-0.00536454 -0.0831049 0)
(-0.0101604 -0.0759982 0)
(-0.00156529 -0.0607538 0)
(0.00823766 -0.0828478 0)
(-0.00362631 -0.0783781 0)
(0.000283637 -0.0612545 0)
(0.00853294 -0.0790141 0)
(0.00135022 -0.0789676 0)
(0.00111211 -0.0794469 0)
(0.00106722 -0.0861576 0)
(-0.000112668 0.0441477 0)
(0.0131574 0.0646133 0)
(-0.00625864 0.0644182 0)
(-0.0144712 0.0578327 0)
(0.00137439 0.0312022 0)
(-7.62787e-06 0.0643073 0)
(-0.0160143 0.0633354 0)
(-0.00218714 0.0275706 0)
(0.00740227 0.0479396 0)
(0.0105739 0.0656975 0)
(0.00322133 0.0718358 0)
(-0.00631031 0.0714358 0)
(-0.0109573 0.0735009 0)
(-0.00310641 0.0513125 0)
(0.00337761 0.0538805 0)
(0.00993025 0.0733753 0)
(-0.00121681 0.0756103 0)
(-0.00407816 0.0816893 0)
(-0.000307481 0.0809116 0)
(0.000398999 0.0832726 0)
(0.000983769 0.08231 0)
(-0.00280213 0.0814887 0)
(-0.00221114 0.077829 0)
(0.000108498 0.0755699 0)
(0.00187794 0.0825335 0)
(0.00179895 0.082901 0)
(-0.000421271 0.0833633 0)
(-0.000166937 0.0839768 0)
(0.000327015 0.0841574 0)
(-0.000533265 0.0839861 0)
(-0.000401022 0.0838034 0)
(0.000328317 0.0838763 0)
(0.000113169 0.0840418 0)
(-0.000216793 0.0839671 0)
(-0.000101965 0.0841037 0)
(0.000519098 0.0841795 0)
(-6.28147e-05 0.0840403 0)
(-0.000812507 0.0842443 0)
(-0.000161074 0.0839492 0)
(-3.27971e-05 0.084119 0)
(-0.000177025 0.0843145 0)
(-0.000206626 0.0842065 0)
(-5.53677e-05 0.0842823 0)
(2.76072e-05 0.0841975 0)
(-0.000103727 0.0843932 0)
(5.85942e-05 0.0842488 0)
(-8.60509e-06 0.0843366 0)
(9.10132e-05 0.0843358 0)
(8.39063e-05 0.0841876 0)
(-7.95221e-05 0.0843631 0)
(3.18883e-05 0.0842232 0)
(4.6013e-05 0.0843201 0)
(5.9031e-05 0.0842345 0)
(8.09301e-05 0.0842842 0)
(-6.46337e-05 0.0842512 0)
(5.92637e-05 0.0842888 0)
(5.52201e-05 0.0841896 0)
(0.000161167 0.0843136 0)
(0.000167701 0.0841497 0)
(6.86776e-05 0.0842421 0)
(-4.86729e-05 0.0841095 0)
(-3.72901e-05 0.0842218 0)
(0.000538155 0.0843417 0)
(-0.000126353 0.0840808 0)
(-0.00075825 0.0843594 0)
(1.57839e-05 0.0832788 0)
(0.000387146 0.0841572 0)
(-0.000123584 0.0840426 0)
(-0.000217099 0.0832983 0)
(0.000681369 0.0839089 0)
(0.000636992 0.0839374 0)
(-0.000173153 0.0840317 0)
(-5.77786e-05 0.0841625 0)
(0.00051257 0.0837165 0)
(-0.00151154 0.0829335 0)
(-0.0017315 0.0829399 0)
(-0.000139008 0.0767085 0)
(0.00182675 0.0771167 0)
(0.00285032 0.0819161 0)
(-0.000390913 0.0823984 0)
(-0.000252092 0.0831702 0)
(0.000391201 0.081147 0)
(0.00396293 0.0814013 0)
(0.00197072 0.0760316 0)
(-0.00949026 0.0734741 0)
(-0.0034263 0.0546013 0)
(0.00306696 0.0504043 0)
(0.0115054 0.0733495 0)
(0.00707039 0.0712435 0)
(-0.00267493 0.0727669 0)
(-0.00872179 0.0669864 0)
(-0.00844311 0.0525307 0)
(0.00226411 0.0272053 0)
(0.0155057 0.0634748 0)
(-0.000367705 0.0638654 0)
(-0.00175882 0.0295873 0)
(0.0156265 0.0586793 0)
(0.00247178 0.0636972 0)
(-0.00967347 0.0588234 0)
(0.0036181 0.0671552 0)
(-0.00776348 -0.0529118 0)
(-0.00251812 -0.0420839 0)
(-0.00331178 -0.019346 0)
(0.00437205 -0.0522645 0)
(-0.00619814 -0.0457611 0)
(-0.00197285 -0.0286241 0)
(0.00168377 -0.0493669 0)
(-0.000314798 -0.0463544 0)
(-0.00454991 -0.0499112 0)
(-0.00235514 -0.0446751 0)
(-0.0016151 -0.0448622 0)
(0.000291223 -0.0440688 0)
(0.00289358 -0.0617937 0)
(0.000731766 -0.0528292 0)
(-0.00202254 -0.054555 0)
(-0.00429031 -0.0562472 0)
(-0.000925239 -0.0529793 0)
(0.00169839 -0.0687612 0)
(-0.000884659 -0.069759 0)
(-0.0016758 -0.0705425 0)
(-0.000480302 -0.0670299 0)
(0.000441459 -0.066071 0)
(0.000191492 -0.0668265 0)
(0.000143578 -0.0652633 0)
(-0.000585531 -0.0703992 0)
(-0.000562327 -0.0685312 0)
(0.000297143 -0.0693724 0)
(0.000221411 -0.071273 0)
(-4.72426e-05 -0.0709754 0)
(0.000433003 -0.0707411 0)
(0.000431525 -0.0712529 0)
(-5.82235e-05 -0.071174 0)
(-5.94753e-05 -0.0709439 0)
(8.5294e-05 -0.0710152 0)
(-3.08169e-05 -0.0714553 0)
(-0.000562897 -0.071282 0)
(-0.000175116 -0.0707289 0)
(0.000141418 -0.0713105 0)
(-4.68061e-05 -0.071306 0)
(-0.000224349 -0.0712288 0)
(-0.000116227 -0.0713979 0)
(-0.000148612 -0.0713551 0)
(-7.78171e-05 -0.0714735 0)
(2.31057e-06 -0.0713037 0)
(-6.10664e-05 -0.0715253 0)
(2.64968e-05 -0.071388 0)
(2.00814e-05 -0.071465 0)
(4.51886e-05 -0.0714748 0)
(6.83408e-05 -0.0712669 0)
(-5.49459e-05 -0.0714691 0)
(3.0505e-05 -0.0713671 0)
(4.31121e-05 -0.0714394 0)
(4.69505e-05 -0.0713629 0)
(8.16378e-05 -0.0713694 0)
(-4.36475e-05 -0.0713671 0)
(4.50064e-05 -0.0714343 0)
(7.14424e-05 -0.071335 0)
(0.000133762 -0.0714564 0)
(0.000121422 -0.0712424 0)
(3.76883e-05 -0.0712905 0)
(0.000107947 -0.0711914 0)
(-9.55836e-05 -0.0714851 0)
(-0.000358488 -0.0714222 0)
(3.92868e-05 -0.0707575 0)
(0.000429483 -0.0715171 0)
(-6.1397e-05 -0.0707919 0)
(-3.06206e-05 -0.0712051 0)
(9.70693e-05 -0.0708866 0)
(0.000149457 -0.0707703 0)
(-0.000313796 -0.0713387 0)
(-0.000383877 -0.0706332 0)
(0.000159278 -0.0707135 0)
(-0.000161275 -0.071397 0)
(-0.000230291 -0.070001 0)
(0.000587754 -0.0686063 0)
(0.000584138 -0.0706373 0)
(-0.00014143 -0.0660096 0)
(3.58369e-05 -0.0662608 0)
(-0.000342229 -0.067093 0)
(0.000404581 -0.0671466 0)
(0.00165822 -0.0701327 0)
(0.00129987 -0.0698272 0)
(-0.00160955 -0.0689303 0)
(0.000979685 -0.0538369 0)
(0.0041609 -0.0556284 0)
(0.00248211 -0.0547861 0)
(0.000134324 -0.0526249 0)
(-0.00301447 -0.0629105 0)
(-2.42891e-05 -0.0435085 0)
(0.00194493 -0.0467797 0)
(0.00217232 -0.044466 0)
(0.00568109 -0.0516983 0)
(0.00068275 -0.0469588 0)
(-0.00229214 -0.0488861 0)
(0.00264752 -0.0291362 0)
(0.00468102 -0.0460438 0)
(-0.00595769 -0.0498311 0)
(-0.000130855 -0.0205851 0)
(0.000533553 -0.0494603 0)
(-0.000405116 -0.0578007 0)
(-0.00709179 0.0364775 0)
(-0.00861078 0.0383832 0)
(0.000863504 0.0350926 0)
(0.00521557 0.0409351 0)
(-0.00614671 0.0177032 0)
(0.00335267 0.0356232 0)
(0.00355194 0.0413818 0)
(0.00164634 0.0139969 0)
(0.00331923 0.0284452 0)
(0.00225042 0.0405884 0)
(-0.000386462 0.0448677 0)
(0.000999674 0.0434019 0)
(-0.000175341 0.0511504 0)
(-0.00117466 0.0321045 0)
(0.00189617 0.0358413 0)
(-0.00283748 0.0481721 0)
(0.000310243 0.0477615 0)
(0.00764576 0.0568218 0)
(0.00126657 0.0571476 0)
(-0.00264139 0.0581426 0)
(0.000514991 0.0562496 0)
(-6.44145e-05 0.0552485 0)
(-0.00140642 0.0534589 0)
(0.000529257 0.0512355 0)
(0.000542899 0.0580621 0)
(0.000116928 0.0570823 0)
(0.000480838 0.0576254 0)
(0.000327656 0.0588972 0)
(-6.45856e-05 0.0587519 0)
(8.45784e-06 0.0585391 0)
(0.000196763 0.0588647 0)
(9.71991e-06 0.0588443 0)
(-0.000100172 0.0587695 0)
(0.00014922 0.058707 0)
(0.000295624 0.0590925 0)
(-0.000157662 0.0588952 0)
(-0.000316382 0.0585084 0)
(-0.000275369 0.0589475 0)
(-0.000202542 0.0589074 0)
(-0.000116234 0.0588772 0)
(-0.000169352 0.0590974 0)
(-0.000153536 0.0589776 0)
(-2.59897e-05 0.0590708 0)
(3.41478e-05 0.0589603 0)
(-8.57927e-05 0.0591965 0)
(4.81628e-05 0.0590138 0)
(-1.03028e-05 0.0591325 0)
(7.24569e-05 0.0591247 0)
(6.79422e-05 0.0589668 0)
(-5.72277e-05 0.0591457 0)
(4.11421e-05 0.0590012 0)
(4.20562e-05 0.0590941 0)
(3.91554e-05 0.0590171 0)
(7.58875e-05 0.0590662 0)
(-6.39885e-05 0.0590418 0)
(4.44495e-05 0.0590488 0)
(6.92959e-05 0.0589658 0)
(0.000126148 0.0590762 0)
(0.000122917 0.0589515 0)
(8.44148e-05 0.05899 0)
(4.65825e-05 0.0589043 0)
(2.44375e-05 0.0591276 0)
(5.26879e-05 0.0590974 0)
(0.000149685 0.0585194 0)
(-8.09314e-05 0.0591541 0)
(-0.000294365 0.0582966 0)
(-2.54262e-06 0.0589418 0)
(-4.15356e-05 0.0587555 0)
(4.6923e-05 0.0583167 0)
(8.35078e-05 0.0589694 0)
(3.30135e-05 0.0584838 0)
(0.000240577 0.0585773 0)
(-0.000339304 0.0590735 0)
(-0.000412393 0.0581643 0)
(7.5204e-05 0.0571322 0)
(-0.000396165 0.0583968 0)
(-0.000625151 0.0521713 0)
(0.00141149 0.0526858 0)
(0.000376024 0.0559453 0)
(-0.000545472 0.0563454 0)
(0.00258552 0.0577242 0)
(-0.00106383 0.0572187 0)
(-0.00757384 0.0567165 0)
(-0.000365486 0.0482835 0)
(0.0029464 0.0478578 0)
(-0.00158323 0.0360564 0)
(0.00141877 0.0315863 0)
(-0.000181886 0.0518018 0)
(-0.000133222 0.042891 0)
(0.000564243 0.0459234 0)
(-0.00188956 0.0411256 0)
(-0.00312231 0.0323288 0)
(-0.00145524 0.0146602 0)
(-0.00358038 0.0408937 0)
(-0.00285109 0.0357588 0)
(0.00686072 0.0181873 0)
(-0.00439849 0.0416141 0)
(3.20708e-05 0.0346538 0)
(0.0119879 0.0357854 0)
(0.00854486 0.043685 0)
(0.00103306 -0.0206655 0)
(0.00557759 -0.0313219 0)
(-0.000494328 -0.0187949 0)
(0.00360283 -0.0257865 0)
(0.00249248 -0.0302107 0)
(-0.000726367 -0.0198142 0)
(0.00204715 -0.0305622 0)
(0.000963973 -0.0311418 0)
(-0.00402119 -0.032868 0)
(-0.00420683 -0.0228067 0)
(-0.00192532 -0.0240708 0)
(-0.00054087 -0.0245359 0)
(0.00133382 -0.0400616 0)
(0.000307728 -0.0356327 0)
(-0.00409061 -0.0354036 0)
(-0.00217189 -0.0333398 0)
(-0.0018367 -0.0384786 0)
(-0.00390075 -0.0464782 0)
(-0.00120832 -0.0413618 0)
(0.000664745 -0.0470214 0)
(-0.000519208 -0.0456029 0)
(2.28463e-05 -0.041762 0)
(0.000747368 -0.0445315 0)
(-0.000693039 -0.0435022 0)
(-0.000679607 -0.04711 0)
(8.71344e-05 -0.0452635 0)
(-0.000263734 -0.0461466 0)
(-0.000112241 -0.0476884 0)
(3.33205e-05 -0.0474146 0)
(9.71102e-06 -0.0473945 0)
(-5.59946e-05 -0.0479665 0)
(1.9088e-07 -0.0476659 0)
(-2.2709e-05 -0.0475779 0)
(-9.63516e-05 -0.0476249 0)
(-0.000216289 -0.0479577 0)
(-0.000118108 -0.0475312 0)
(8.52153e-05 -0.0472347 0)
(-2.90819e-07 -0.0478132 0)
(-7.90159e-06 -0.0479926 0)
(-0.000174264 -0.0477397 0)
(-9.76139e-05 -0.047956 0)
(-0.00013846 -0.0479007 0)
(-7.69838e-05 -0.0480665 0)
(2.45296e-05 -0.0478038 0)
(-5.89072e-05 -0.0480838 0)
(4.14298e-05 -0.0479088 0)
(1.56716e-05 -0.0480138 0)
(4.62663e-05 -0.0480206 0)
(6.19713e-05 -0.0477861 0)
(-6.81347e-05 -0.0479945 0)
(2.36549e-05 -0.0479134 0)
(4.13253e-05 -0.0479577 0)
(5.96947e-05 -0.047902 0)
(7.06894e-05 -0.0478901 0)
(-6.34807e-05 -0.0479031 0)
(5.26012e-05 -0.0479829 0)
(3.43252e-05 -0.047882 0)
(0.00016529 -0.0479908 0)
(0.000119877 -0.0477855 0)
(3.62982e-05 -0.0478121 0)
(8.17282e-05 -0.0477141 0)
(-0.000111826 -0.0480637 0)
(-0.000249934 -0.0479598 0)
(-0.000199201 -0.0472562 0)
(0.00011566 -0.0478532 0)
(0.000121235 -0.0475422 0)
(0.000129744 -0.0478213 0)
(3.50122e-05 -0.0475168 0)
(-1.42695e-05 -0.0474673 0)
(0.000136578 -0.0479987 0)
(9.50818e-05 -0.0472661 0)
(7.59087e-05 -0.0471289 0)
(9.05584e-05 -0.0477036 0)
(0.000341237 -0.046822 0)
(-0.000215576 -0.0452877 0)
(0.000597996 -0.0471151 0)
(0.00104204 -0.044048 0)
(-0.000686816 -0.044216 0)
(-0.000179714 -0.0426905 0)
(0.000531253 -0.0455525 0)
(-0.000395256 -0.0467091 0)
(0.00132887 -0.0414294 0)
(0.00415362 -0.046485 0)
(0.00192007 -0.0393237 0)
(0.00237014 -0.0329747 0)
(0.00400194 -0.0355822 0)
(8.25474e-05 -0.0351546 0)
(-0.000780718 -0.0418431 0)
(0.000636909 -0.0245009 0)
(0.00199296 -0.0251554 0)
(0.00419307 -0.023006 0)
(0.00473834 -0.0340299 0)
(-0.000523561 -0.0315608 0)
(-0.00198391 -0.0299266 0)
(0.00163989 -0.0209856 0)
(-0.00191947 -0.0303191 0)
(-0.00319131 -0.0229086 0)
(0.00352122 -0.022461 0)
(-0.00633685 -0.0361808 0)
(-0.000125249 -0.0167879 0)
(0.00616273 0.0157542 0)
(0.0021454 0.0268499 0)
(-0.00511143 0.0250364 0)
(0.000184799 0.0239467 0)
(-0.000202471 0.00895555 0)
(0.00112082 0.023971 0)
(0.00020211 0.0261827 0)
(0.00117235 0.00602091 0)
(0.000185073 0.0187055 0)
(-0.00148669 0.0247177 0)
(0.00151881 0.026699 0)
(0.00282355 0.0264523 0)
(0.00179293 0.0331958 0)
(-0.000868157 0.0203428 0)
(-0.000477442 0.0214166 0)
(-1.13616e-05 0.0292752 0)
(0.00402166 0.0326432 0)
(0.00139937 0.0373004 0)
(-0.000736087 0.0350804 0)
(0.00137137 0.0378199 0)
(-0.00059893 0.0370946 0)
(-0.000237825 0.0348201 0)
(-7.9371e-05 0.0342818 0)
(7.62753e-06 0.0326509 0)
(0.000418286 0.0376707 0)
(2.57954e-05 0.0369075 0)
(0.00037907 0.0374684 0)
(0.000165203 0.0382845 0)
(-5.36158e-05 0.0382267 0)
(0.000208256 0.0380629 0)
(0.000272186 0.038405 0)
(-3.52759e-05 0.038202 0)
(-9.74556e-05 0.0382849 0)
(-0.000132267 0.0381401 0)
(-0.000156915 0.0385372 0)
(-0.000389001 0.0381206 0)
(-0.000248407 0.0380296 0)
(-5.15774e-05 0.0383733 0)
(-0.000112486 0.0384989 0)
(-0.000145727 0.0383348 0)
(-0.000180625 0.0385834 0)
(-0.000142859 0.0384477 0)
(3.53646e-06 0.0385493 0)
(3.62201e-05 0.0384086 0)
(-6.30004e-05 0.0386877 0)
(3.60257e-05 0.0384547 0)
(-1.07951e-05 0.0386236 0)
(6.27789e-05 0.0385828 0)
(5.15162e-05 0.038457 0)
(-6.23722e-05 0.0386081 0)
(4.91474e-05 0.0384625 0)
(4.04328e-05 0.0385347 0)
(2.6263e-05 0.0384818 0)
(6.31477e-05 0.0385547 0)
(-6.76948e-05 0.0385126 0)
(3.46616e-05 0.0384979 0)
(6.01064e-05 0.0384206 0)
(0.000103203 0.0385132 0)
(0.000118982 0.0384687 0)
(0.000120905 0.0384587 0)
(8.11106e-05 0.0383808 0)
(-1.31727e-05 0.0386661 0)
(-0.00016926 0.0385381 0)
(0.000152265 0.0379749 0)
(0.00017316 0.0383843 0)
(0.000150391 0.0378978 0)
(0.000241961 0.0383193 0)
(-6.49078e-05 0.0382999 0)
(9.80903e-05 0.0377796 0)
(-7.12915e-05 0.0384387 0)
(-0.00017169 0.03803 0)
(0.00028066 0.0380926 0)
(5.02732e-05 0.0384137 0)
(-0.000302404 0.0379324 0)
(-0.000154789 0.0369345 0)
(-0.000400147 0.0376686 0)
(-2.81055e-05 0.0333733 0)
(0.000194407 0.0338489 0)
(0.000241831 0.0353556 0)
(0.000206373 0.0369756 0)
(-0.00110576 0.0373432 0)
(0.000927829 0.0350762 0)
(-0.000995732 0.0371666 0)
(-0.00398942 0.0331099 0)
(0.000167791 0.0291261 0)
(0.000710839 0.0214572 0)
(0.00142591 0.0194145 0)
(-0.00159846 0.034083 0)
(-0.00245497 0.0263783 0)
(-0.00160693 0.0272922 0)
(0.00110879 0.0250339 0)
(5.02482e-05 0.0219053 0)
(-0.00126396 0.00703202 0)
(-0.000286943 0.0250665 0)
(-0.00119718 0.0235134 0)
(-0.000365557 0.00963351 0)
(-5.40101e-06 0.0224768 0)
(0.00603305 0.0251243 0)
(-0.00496557 0.0258351 0)
(-0.00626162 0.0208819 0)
(-0.00204589 -0.019405 0)
(0.00126295 -0.00800015 0)
(0.000647749 -0.00750457 0)
(0.00188854 -0.0194364 0)
(-0.000117973 -0.0216769 0)
(-0.00051101 -0.0101247 0)
(0.00191688 -0.019822 0)
(-0.000789977 -0.0217994 0)
(-0.00332442 -0.0202687 0)
(-0.00265927 -0.0126974 0)
(-0.00211752 -0.0150644 0)
(-0.00119611 -0.0132086 0)
(-0.00024354 -0.0233108 0)
(0.000505975 -0.022746 0)
(-0.00184359 -0.0227846 0)
(-0.00171596 -0.021731 0)
(-0.00299229 -0.0256969 0)
(-0.00225128 -0.027822 0)
(-0.000262744 -0.0256763 0)
(-0.000464103 -0.0303678 0)
(-0.00016425 -0.0284783 0)
(0.000233039 -0.0258821 0)
(0.000514039 -0.0284149 0)
(-0.000106723 -0.0280574 0)
(-0.00123878 -0.0303693 0)
(-0.00047093 -0.0285969 0)
(-0.000409626 -0.0292436 0)
(-0.000300155 -0.030254 0)
(4.31567e-05 -0.0301722 0)
(-9.10971e-05 -0.0302081 0)
(-7.53433e-05 -0.0305878 0)
(-1.24906e-06 -0.0301555 0)
(-9.64061e-06 -0.0302313 0)
(4.29248e-05 -0.030204 0)
(6.1453e-06 -0.0305622 0)
(-0.000121781 -0.0301034 0)
(-7.3766e-05 -0.0301339 0)
(-0.000101118 -0.0305016 0)
(-1.99182e-06 -0.0307705 0)
(-0.00011186 -0.0304099 0)
(-0.000128708 -0.0306942 0)
(-0.000107064 -0.0306405 0)
(3.58051e-06 -0.0308441 0)
(6.26353e-05 -0.0304926 0)
(-6.70527e-05 -0.0308216 0)
(5.3233e-05 -0.0306149 0)
(-9.71371e-06 -0.0307465 0)
(3.64283e-05 -0.0307419 0)
(5.95955e-05 -0.0304939 0)
(-7.13287e-05 -0.0307049 0)
(7.75294e-06 -0.0306361 0)
(4.0266e-05 -0.0306515 0)
(7.87132e-05 -0.0306246 0)
(5.2845e-05 -0.030599 0)
(-8.88343e-05 -0.0306271 0)
(4.67976e-05 -0.030706 0)
(1.74207e-05 -0.0306268 0)
(0.000197455 -0.0306885 0)
(0.00010963 -0.0305683 0)
(-1.84429e-05 -0.0305171 0)
(3.59802e-05 -0.03042 0)
(-0.000113347 -0.0307195 0)
(-0.000112257 -0.0307106 0)
(-9.28929e-05 -0.0301009 0)
(0.000157503 -0.0304654 0)
(-9.94194e-05 -0.0303535 0)
(-5.32202e-06 -0.0303631 0)
(4.17935e-05 -0.030176 0)
(-4.46917e-05 -0.0301677 0)
(0.000184524 -0.0305587 0)
(0.000192734 -0.0301402 0)
(4.15703e-05 -0.0299626 0)
(0.000215981 -0.0302071 0)
(0.00052117 -0.0297261 0)
(0.000357125 -0.0285456 0)
(0.00119424 -0.0302113 0)
(0.000554581 -0.0284864 0)
(-0.000633551 -0.0283135 0)
(-0.000487659 -0.0263955 0)
(0.000501077 -0.028555 0)
(0.000514021 -0.0303496 0)
(0.000285528 -0.025745 0)
(0.00233417 -0.027748 0)
(0.00303935 -0.0263004 0)
(0.00192188 -0.0215653 0)
(0.00195318 -0.0231336 0)
(-0.000372567 -0.0221955 0)
(0.000419079 -0.0247694 0)
(0.00114335 -0.0130905 0)
(0.00197942 -0.0151817 0)
(0.00287506 -0.0134385 0)
(0.00315648 -0.0212598 0)
(0.00105382 -0.0218342 0)
(-0.00101588 -0.0191146 0)
(0.00144088 -0.0108389 0)
(0.00053395 -0.0218682 0)
(-0.00271174 -0.0183647 0)
(-0.000477269 -0.00785796 0)
(-0.00172743 -0.0121483 0)
(0.00259539 -0.0184403 0)
(-0.000329987 0.00936842 0)
(0.000931048 0.0159394 0)
(0.00185877 0.0171768 0)
(0.00149343 0.0172069 0)
(-0.000848434 0.00357611 0)
(0.0012299 0.0155328 0)
(0.00202757 0.017841 0)
(-0.000344735 0.00319772 0)
(-0.000230935 0.0119915 0)
(-0.000823513 0.0162414 0)
(-0.000110665 0.0170424 0)
(0.00264805 0.0168928 0)
(0.00123401 0.0209888 0)
(-0.00089834 0.0125354 0)
(0.000415071 0.0125626 0)
(0.00104877 0.0192815 0)
(0.00106346 0.0220517 0)
(-0.00104498 0.0234161 0)
(0.00153496 0.0223204 0)
(0.000752784 0.0246103 0)
(-0.00212675 0.0238093 0)
(5.1225e-05 0.0221875 0)
(0.00046559 0.0216596 0)
(0.000455975 0.0211147 0)
(-0.000177119 0.0245089 0)
(-0.000919512 0.0236401 0)
(0.000201321 0.0241544 0)
(0.000404682 0.0244711 0)
(-6.00383e-05 0.0245707 0)
(4.91891e-05 0.0244391 0)
(-0.000176644 0.0246787 0)
(-6.43325e-05 0.0244292 0)
(-3.81185e-05 0.0245895 0)
(-0.000114622 0.0243888 0)
(-4.9357e-05 0.0248861 0)
(-0.000169346 0.0244219 0)
(0.000460922 0.0244946 0)
(0.000398717 0.0245754 0)
(-0.000140563 0.0248247 0)
(-4.13165e-05 0.0245924 0)
(-3.44194e-05 0.0248485 0)
(-0.000150718 0.0246614 0)
(-2.99076e-05 0.0248115 0)
(3.64862e-05 0.0246601 0)
(-4.95783e-05 0.0249478 0)
(6.03573e-05 0.0246902 0)
(-1.63768e-05 0.0248957 0)
(3.88827e-05 0.0248205 0)
(4.16032e-05 0.0247221 0)
(-6.45825e-05 0.024858 0)
(4.75916e-05 0.0246984 0)
(2.18629e-05 0.0247475 0)
(1.16473e-05 0.0247236 0)
(5.095e-05 0.0248337 0)
(-6.6088e-05 0.0247733 0)
(4.88839e-05 0.0247026 0)
(5.87541e-05 0.0246703 0)
(-4.85788e-09 0.0247126 0)
(0.000126806 0.024852 0)
(0.000133086 0.0246973 0)
(2.87491e-05 0.024685 0)
(7.62782e-05 0.024913 0)
(-0.000606919 0.0247833 0)
(-0.00066872 0.0243174 0)
(8.85456e-05 0.0246943 0)
(0.000101205 0.0243609 0)
(0.000165018 0.0245463 0)
(-0.000248078 0.0246449 0)
(8.44258e-05 0.0241313 0)
(0.000496964 0.0246301 0)
(0.000146932 0.0244493 0)
(0.000220115 0.0244874 0)
(-0.000154641 0.0245601 0)
(-7.185e-05 0.0243757 0)
(0.000440054 0.023592 0)
(-6.04082e-05 0.0241728 0)
(-0.000306466 0.0217754 0)
(-0.00029959 0.0216713 0)
(-3.76973e-05 0.022346 0)
(0.00166316 0.0236456 0)
(-0.000711109 0.0244261 0)
(-0.00118476 0.0222908 0)
(0.00135169 0.0232697 0)
(-0.00108514 0.0223687 0)
(-0.00084445 0.019166 0)
(-0.000162607 0.0125767 0)
(0.00142101 0.0114492 0)
(-0.00115851 0.021661 0)
(-0.00304128 0.0169781 0)
(0.000200704 0.0171323 0)
(0.000873082 0.0166563 0)
(0.000109568 0.0149924 0)
(-1.32303e-05 0.00316439 0)
(-0.00148444 0.0163249 0)
(-0.000773496 0.0152898 0)
(0.000376888 0.00586511 0)
(-0.00125283 0.0162563 0)
(-0.00129565 0.0168432 0)
(-0.000384284 0.0143755 0)
(0.000266156 0.0148054 0)
(-0.000838522 -0.0142172 0)
(0.000264775 -0.00401531 0)
(0.000196943 -0.00242913 0)
(0.000648396 -0.0101419 0)
(0.00102531 -0.0156192 0)
(-0.00084423 -0.00688119 0)
(-0.000330704 -0.0116966 0)
(0.000401328 -0.0144199 0)
(-0.000924413 -0.0135545 0)
(-0.00168174 -0.00647769 0)
(-0.00169371 -0.010554 0)
(-0.00162821 -0.00731156 0)
(0.000838794 -0.0122949 0)
(0.00114522 -0.0151321 0)
(-0.00149484 -0.015682 0)
(-0.00227631 -0.0133536 0)
(-0.00230826 -0.0153625 0)
(-0.000972156 -0.0178229 0)
(-0.000610267 -0.017076 0)
(-0.000653801 -0.0177392 0)
(0.000480729 -0.0175187 0)
(0.000288756 -0.0168734 0)
(-0.000127341 -0.0181622 0)
(-0.000374412 -0.0178346 0)
(-0.000428866 -0.0188968 0)
(-0.000230537 -0.017973 0)
(-0.000490717 -0.0187732 0)
(-0.000206941 -0.0188149 0)
(4.9709e-05 -0.0188374 0)
(-0.000281065 -0.0188047 0)
(5.20839e-05 -0.0191993 0)
(1.6478e-05 -0.0188036 0)
(-0.000370909 -0.0188948 0)
(0.000182901 -0.0187863 0)
(3.29749e-05 -0.0192239 0)
(-8.9969e-05 -0.0188349 0)
(-8.59648e-05 -0.0190398 0)
(-0.000495211 -0.0188423 0)
(-0.00019937 -0.0192074 0)
(-0.000116647 -0.0188828 0)
(-0.000110161 -0.019144 0)
(-6.6898e-05 -0.0190646 0)
(5.77697e-05 -0.0193699 0)
(-0.000208454 -0.0189469 0)
(-2.75464e-05 -0.0192637 0)
(0.00026541 -0.0190852 0)
(-0.000116449 -0.0192191 0)
(-2.51863e-05 -0.0191936 0)
(0.000112591 -0.0189612 0)
(-3.23581e-05 -0.0191612 0)
(-1.42094e-05 -0.0191249 0)
(-7.4518e-05 -0.0190824 0)
(0.000151034 -0.0190889 0)
(8.59665e-05 -0.0190897 0)
(-0.000372261 -0.0191029 0)
(7.13902e-05 -0.0191333 0)
(0.00027646 -0.0190963 0)
(0.000171899 -0.0191474 0)
(6.18003e-05 -0.0191358 0)
(0.000150722 -0.0189577 0)
(0.000163397 -0.0189152 0)
(-0.000110247 -0.0190845 0)
(0.000206992 -0.0190128 0)
(-0.000132838 -0.0190074 0)
(5.73215e-05 -0.0192236 0)
(0.00029928 -0.019161 0)
(-0.00011103 -0.0188641 0)
(0.00040277 -0.0188653 0)
(-7.11581e-05 -0.0191418 0)
(-0.000243591 -0.0191866 0)
(0.000238706 -0.0187189 0)
(8.19035e-05 -0.0186148 0)
(-0.000212055 -0.0187442 0)
(0.000546958 -0.0187524 0)
(0.000613649 -0.0177049 0)
(0.000525358 -0.0188879 0)
(0.000827336 -0.0183578 0)
(-0.000237487 -0.0181527 0)
(-0.000352172 -0.0169846 0)
(-0.000103095 -0.0176859 0)
(0.000531998 -0.0182456 0)
(0.000455744 -0.0172075 0)
(0.00084484 -0.0175502 0)
(0.00260363 -0.0158046 0)
(0.0024558 -0.013411 0)
(0.00147873 -0.0161042 0)
(-0.00137012 -0.0144797 0)
(-0.000763078 -0.0127477 0)
(0.00190946 -0.00723271 0)
(0.00183203 -0.0106846 0)
(0.00180594 -0.0070758 0)
(0.00178705 -0.014067 0)
(-0.000312781 -0.0147675 0)
(-0.000113856 -0.0118374 0)
(0.00103865 -0.00647487 0)
(-0.000829529 -0.015775 0)
(-0.000553521 -0.0103289 0)
(-0.000321893 -0.00301038 0)
(-0.000795863 -0.00736382 0)
(0.000478286 -0.0126303 0)
(-0.0017738 0.0057861 0)
(-0.000651011 0.0106206 0)
(0.00203103 0.0126625 0)
(0.000747457 0.0113313 0)
(0.000311079 0.000630316 0)
(0.000891765 0.012408 0)
(0.000404892 0.011608 0)
(0.000117345 -0.000829861 0)
(-0.00142046 0.00871944 0)
(-0.000917617 0.0121576 0)
(0.00166789 0.0119129 0)
(-0.000208062 0.0102624 0)
(0.000461729 0.0128046 0)
(0.00118111 0.00848647 0)
(-2.96797e-05 0.00831957 0)
(-0.000160527 0.0130514 0)
(0.000462113 0.0141812 0)
(-0.000323956 0.0147239 0)
(-0.00055721 0.0148087 0)
(0.000306209 0.0155915 0)
(-0.000232824 0.0152688 0)
(0.00010214 0.0146583 0)
(-2.1617e-05 0.0138682 0)
(-4.61517e-05 0.0134951 0)
(-8.1069e-05 0.0158038 0)
(0.000290265 0.015375 0)
(-6.06099e-05 0.0156679 0)
(-0.000949908 0.015476 0)
(-7.29286e-05 0.0159128 0)
(-0.000121792 0.0156007 0)
(-0.000253517 0.0158437 0)
(-1.88719e-05 0.0157325 0)
(0.000201145 0.0158338 0)
(4.27503e-05 0.0154237 0)
(-6.36838e-05 0.0162059 0)
(-0.00029594 0.0155974 0)
(-0.000310317 0.015968 0)
(-6.63236e-05 0.0156789 0)
(6.99595e-05 0.0159134 0)
(-9.71275e-05 0.0156347 0)
(-9.01925e-05 0.0159519 0)
(-0.000207355 0.0156973 0)
(-0.000139233 0.0159962 0)
(0.000335717 0.0157824 0)
(-3.05531e-06 0.0158911 0)
(-7.46883e-05 0.0158216 0)
(3.95514e-05 0.0159937 0)
(1.46373e-05 0.0158536 0)
(-1.60706e-05 0.015791 0)
(-4.82425e-05 0.0159508 0)
(-2.30395e-06 0.0158126 0)
(3.83657e-05 0.0157892 0)
(5.21877e-05 0.0157821 0)
(2.74375e-06 0.0160052 0)
(5.87119e-05 0.0158779 0)
(-4.00609e-05 0.0156153 0)
(-0.000172107 0.0157808 0)
(0.000385951 0.0158559 0)
(9.2554e-05 0.0159121 0)
(-0.000274784 0.0157601 0)
(3.00119e-05 0.0158907 0)
(1.25551e-05 0.016014 0)
(-6.07765e-05 0.0158883 0)
(0.000575185 0.0157152 0)
(0.000353054 0.0156875 0)
(-0.00036697 0.0157026 0)
(-7.6056e-05 0.0156748 0)
(-0.000133456 0.0159066 0)
(0.000174854 0.0156609 0)
(0.000324357 0.0157455 0)
(0.00019832 0.015545 0)
(0.000227662 0.0158879 0)
(0.000806017 0.0155742 0)
(0.000210034 0.0154082 0)
(-0.000269533 0.0152211 0)
(0.000322043 0.0153828 0)
(3.29563e-05 0.0142899 0)
(-0.000355421 0.0141452 0)
(-0.000540109 0.0144271 0)
(6.73627e-05 0.0152338 0)
(0.00015819 0.0157962 0)
(0.000823014 0.0147943 0)
(0.000504793 0.0143537 0)
(-0.00056512 0.0142582 0)
(0.000294389 0.0131654 0)
(-0.00025453 0.00847726 0)
(-0.000862053 0.0073782 0)
(-0.000199662 0.0127751 0)
(0.000450565 0.010347 0)
(-0.00149681 0.0118604 0)
(0.000768353 0.0120627 0)
(0.000253107 0.0115646 0)
(-0.000351679 0.000226186 0)
(0.000785453 0.0101052 0)
(-0.000127396 0.011579 0)
(0.000584575 0.003042 0)
(-0.000751264 0.0108264 0)
(-0.00178315 0.0128744 0)
(0.000846796 0.00898855 0)
(0.00106811 0.0100089 0)
(0.0020411 -0.00749142 0)
(0.00138991 -0.00411985 0)
(-0.00136608 0.000103289 0)
(0.000166358 -0.00380886 0)
(0.000376865 -0.0117776 0)
(-0.0022186 -0.00265411 0)
(-0.000592812 -0.00630753 0)
(-0.000792336 -0.00870543 0)
(0.00134248 -0.00804144 0)
(-0.000304288 -0.00434309 0)
(-0.0023424 -0.00622247 0)
(0.00045693 -0.00174477 0)
(-0.00227433 -0.00770299 0)
(-0.00135627 -0.00967204 0)
(0.000283906 -0.00924411 0)
(-0.000446054 -0.0074995 0)
(-0.00180546 -0.0086844 0)
(7.10737e-05 -0.0102431 0)
(-0.00210548 -0.0106462 0)
(-0.0010702 -0.0103638 0)
(0.000100747 -0.010181 0)
(0.000982959 -0.00985874 0)
(0.0012986 -0.0109869 0)
(-0.0015564 -0.0108976 0)
(-0.00178449 -0.0112593 0)
(0.000497328 -0.0105365 0)
(-0.000457848 -0.0106312 0)
(-0.00104942 -0.0108758 0)
(-1.5678e-05 -0.0112921 0)
(0.000743173 -0.0108244 0)
(0.000302607 -0.0114497 0)
(-1.03944e-05 -0.0110453 0)
(0.000705558 -0.0111612 0)
(-0.000933867 -0.0108218 0)
(-0.000685749 -0.0112604 0)
(0.000694369 -0.0108295 0)
(-5.10131e-05 -0.0114341 0)
(-5.7024e-05 -0.0109955 0)
(0.000225161 -0.0114544 0)
(-0.000228717 -0.010938 0)
(0.00042332 -0.011325 0)
(-8.11113e-05 -0.0112351 0)
(6.00322e-05 -0.0117213 0)
(4.14289e-06 -0.0111993 0)
(-7.4265e-05 -0.0112827 0)
(-0.000215589 -0.0113225 0)
(-0.000326497 -0.0113165 0)
(3.85365e-06 -0.011292 0)
(-9.85749e-05 -0.0110241 0)
(0.000272116 -0.0112525 0)
(-3.58005e-05 -0.0113086 0)
(4.85858e-05 -0.0111708 0)
(-1.06657e-05 -0.0112318 0)
(0.000120879 -0.0111993 0)
(0.000366468 -0.0112892 0)
(0.000166379 -0.0112134 0)
(4.73105e-06 -0.0114284 0)
(-0.000609425 -0.0114077 0)
(-0.000488861 -0.0110641 0)
(0.000807623 -0.0110502 0)
(0.000149965 -0.0112651 0)
(-0.000206864 -0.0111968 0)
(0.000378889 -0.0113429 0)
(-0.000243515 -0.0114097 0)
(-0.000906382 -0.0110668 0)
(0.000167917 -0.0111758 0)
(0.000769148 -0.0110951 0)
(-0.000793903 -0.0111458 0)
(0.000385179 -0.0115079 0)
(-0.000245393 -0.0113602 0)
(-0.000664315 -0.0107724 0)
(0.000269757 -0.0109544 0)
(0.00111478 -0.010817 0)
(0.000359837 -0.0105675 0)
(-0.000372847 -0.0102216 0)
(0.00217136 -0.0112167 0)
(0.000562399 -0.0111392 0)
(-0.000461802 -0.0107406 0)
(0.00129044 -0.0100757 0)
(0.000613512 -0.0108769 0)
(-0.000276327 -0.0112391 0)
(0.000115514 -0.0106383 0)
(-0.000499769 -0.00983708 0)
(0.00196102 -0.00900527 0)
(0.000836894 -0.00751536 0)
(-0.000274264 -0.00969266 0)
(0.00161106 -0.00944152 0)
(0.00217792 -0.00779953 0)
(-0.000838569 -0.00165317 0)
(0.00203246 -0.00590221 0)
(0.000470627 -0.00408068 0)
(0.000225846 -0.00824857 0)
(0.00209211 -0.0111327 0)
(-0.000251021 -0.00734491 0)
(0.00116002 -0.00197122 0)