/*--------------------------------*- C++ -*----------------------------------*\
| =========                 |                                                 |
| \\      /  F ield         | OpenFOAM: The Open Source CFD Toolbox           |
|  \\    /   O peration     | Version:  2312                                  |
|   \\  /    A nd           | Website:  www.openfoam.com                      |
|    \\/     M anipulation  |                                                 |
\*---------------------------------------------------------------------------*/
FoamFile
{
    version     2.0;
    format      ascii;
    arch        "LSB;label=32;scalar=64";
    class       volScalarField;
    location    "3";
    object      alpha.airMean;
}
// * * * * * * * * * * * * * * * * * * * * * * * * * * * * * * * * * * * * * //

dimensions      [0 0 0 0 0 0 0];

internalField   nonuniform List<scalar> 
50000
(
0.207522
0.196494
0.193407
0.202828
0.201342
0.198173
0.205566
0.205685
0.203578
0.200066
0.196451
0.199087
0.204009
0.205527
0.205634
0.205588
0.200592
0.199079
0.200053
0.200424
0.201402
0.203843
0.20525
0.205008
0.206165
0.203931
0.201626
0.202332
0.202457
0.206319
0.206192
0.207167
0.206853
0.206138
0.208583
0.208381
0.206167
0.211381
0.207669
0.213769
0.207108
0.212091
0.210386
0.212078
0.214618
0.2154
0.216002
0.216563
0.216152
0.216699
0.216392
0.216731
0.21663
0.215977
0.216097
0.212889
0.212889
0.214718
0.214611
0.212911
0.213736
0.212095
0.210538
0.205258
0.211186
0.205955
0.206609
0.204141
0.206231
0.206425
0.206094
0.202719
0.202209
0.201812
0.202599
0.206622
0.204847
0.204996
0.204625
0.202245
0.201578
0.200185
0.198915
0.199019
0.203763
0.205401
0.205027
0.204062
0.19988
0.196692
0.198006
0.202848
0.205007
0.204569
0.200603
0.203384
0.204734
0.197073
0.196206
0.200359
0.16121
0.162772
0.163077
0.164274
0.159714
0.16488
0.16119
0.160546
0.161455
0.16374
0.163055
0.16449
0.162299
0.158686
0.160452
0.164462
0.165846
0.165005
0.165359
0.166591
0.166605
0.165477
0.163296
0.163199
0.165492
0.167755
0.168158
0.168128
0.16903
0.169702
0.166293
0.167326
0.17058
0.171423
0.171978
0.172702
0.171825
0.172991
0.168878
0.174393
0.172498
0.174706
0.172872
0.173754
0.175646
0.176201
0.176446
0.176724
0.176405
0.176754
0.17654
0.176753
0.176726
0.176462
0.176451
0.174489
0.174461
0.175798
0.175881
0.175043
0.175423
0.173691
0.173883
0.171399
0.172094
0.166844
0.171155
0.169436
0.166944
0.166654
0.169415
0.169098
0.168163
0.168015
0.167971
0.166247
0.163266
0.163235
0.165003
0.166159
0.16699
0.165823
0.165124
0.165225
0.165107
0.162184
0.160676
0.161511
0.1641
0.162964
0.163863
0.161995
0.159367
0.161037
0.163896
0.159787
0.164675
0.164022
0.162829
0.163935
0.132256
0.135429
0.13433
0.134813
0.130589
0.138687
0.133157
0.131374
0.132688
0.135199
0.133738
0.135369
0.133216
0.130541
0.131479
0.134973
0.137065
0.133532
0.133138
0.134118
0.135119
0.133383
0.132173
0.131984
0.133459
0.135267
0.135415
0.134401
0.135415
0.135592
0.132959
0.133529
0.135766
0.136299
0.136848
0.136869
0.136581
0.136739
0.134463
0.137508
0.137288
0.137791
0.136866
0.136997
0.138006
0.138191
0.13836
0.138556
0.138449
0.138575
0.138514
0.138589
0.138525
0.1384
0.138332
0.137598
0.137554
0.138115
0.13831
0.137997
0.138223
0.137356
0.13742
0.136425
0.136823
0.133333
0.135933
0.135297
0.13334
0.133167
0.135225
0.135567
0.134629
0.134725
0.135801
0.134101
0.131486
0.132111
0.133102
0.134615
0.135091
0.133635
0.133129
0.135739
0.135427
0.132504
0.130991
0.131952
0.13428
0.132938
0.13519
0.132919
0.131037
0.131745
0.135971
0.131098
0.135785
0.13618
0.132963
0.133321
0.129698
0.1333
0.131971
0.134001
0.129523
0.136973
0.132266
0.128925
0.130312
0.133717
0.13141
0.133818
0.131739
0.129512
0.129022
0.133617
0.135472
0.132357
0.1327
0.13333
0.134189
0.132558
0.130897
0.130168
0.132374
0.134493
0.134463
0.133756
0.134866
0.134758
0.132132
0.132732
0.135071
0.135539
0.136304
0.136327
0.135914
0.136017
0.133688
0.136763
0.136351
0.137009
0.13617
0.136297
0.137301
0.137526
0.137676
0.137856
0.137703
0.137875
0.137769
0.137833
0.1378
0.137702
0.137666
0.13679
0.136844
0.137538
0.137603
0.137176
0.137433
0.136928
0.136422
0.135638
0.135797
0.132591
0.135168
0.134893
0.132611
0.132352
0.134523
0.134977
0.133839
0.133884
0.134958
0.133067
0.13047
0.130416
0.132204
0.133642
0.134043
0.13318
0.131894
0.134185
0.134398
0.130647
0.128879
0.131059
0.132995
0.131535
0.133426
0.131315
0.129508
0.130203
0.134224
0.130098
0.134734
0.134821
0.132207
0.131616
0.126359
0.128981
0.128588
0.129797
0.126371
0.133086
0.12885
0.12796
0.127259
0.130994
0.128973
0.130445
0.129221
0.125581
0.127978
0.129869
0.131446
0.129556
0.128347
0.129102
0.130413
0.129104
0.127428
0.128115
0.128271
0.130013
0.130117
0.129603
0.129959
0.130171
0.128324
0.128811
0.129347
0.130015
0.130469
0.130767
0.130732
0.130691
0.129464
0.131535
0.130976
0.131557
0.130822
0.130638
0.131166
0.131159
0.131574
0.131991
0.131954
0.132194
0.131883
0.131882
0.131693
0.131627
0.131528
0.131352
0.131147
0.131565
0.13192
0.13173
0.131649
0.131226
0.130541
0.130519
0.1307
0.128859
0.129547
0.129979
0.128786
0.128374
0.130064
0.130148
0.129453
0.129291
0.130338
0.129089
0.127208
0.128132
0.128258
0.130236
0.129587
0.128906
0.129613
0.130387
0.130451
0.12751
0.128048
0.127405
0.129984
0.12872
0.130449
0.128652
0.126274
0.128344
0.131107
0.126713
0.131205
0.131693
0.129585
0.130028
0.126036
0.129035
0.128721
0.129753
0.127792
0.133084
0.129708
0.125505
0.128481
0.130291
0.129208
0.130554
0.12833
0.12794
0.125812
0.13045
0.13181
0.129364
0.129118
0.129018
0.130533
0.128732
0.128407
0.126816
0.129134
0.130315
0.130215
0.129414
0.129962
0.130191
0.128813
0.128519
0.130337
0.130623
0.130953
0.130782
0.130841
0.130773
0.129316
0.131417
0.131237
0.131409
0.13073
0.131087
0.131667
0.13193
0.131988
0.132205
0.132097
0.132207
0.132084
0.132195
0.132147
0.132052
0.13202
0.13121
0.131446
0.131791
0.132015
0.131543
0.131783
0.131558
0.131066
0.130379
0.130711
0.128822
0.130101
0.130312
0.128412
0.12895
0.130053
0.130093
0.129555
0.12982
0.130548
0.129027
0.128136
0.126891
0.129141
0.12999
0.129669
0.129397
0.128912
0.130916
0.130771
0.128484
0.12567
0.128853
0.129482
0.129082
0.130613
0.128336
0.127641
0.126871
0.131476
0.127832
0.131422
0.131886
0.130725
0.127993
0.125976
0.128218
0.128198
0.128715
0.125421
0.132305
0.128229
0.127769
0.12608
0.130588
0.128524
0.129973
0.128595
0.12437
0.127629
0.129086
0.131216
0.128914
0.127461
0.128386
0.129498
0.128427
0.126344
0.127651
0.127283
0.128801
0.129452
0.12825
0.128497
0.128802
0.127082
0.127835
0.128226
0.128839
0.12858
0.12862
0.129024
0.128507
0.128285
0.129378
0.129224
0.129357
0.128782
0.128961
0.129023
0.129229
0.129443
0.129891
0.129886
0.129965
0.129914
0.12989
0.12985
0.129476
0.129477
0.129132
0.129224
0.129277
0.12953
0.12933
0.129138
0.128717
0.129044
0.128753
0.12898
0.127351
0.128152
0.12888
0.12776
0.127103
0.128712
0.128682
0.128238
0.128682
0.129253
0.128123
0.126129
0.127646
0.127225
0.129449
0.128878
0.128034
0.128848
0.129741
0.13004
0.126693
0.127731
0.12638
0.129333
0.128322
0.130065
0.128325
0.125281
0.127932
0.130317
0.125741
0.130461
0.131646
0.129172
0.129534
0.125839
0.128721
0.128384
0.128684
0.127406
0.132412
0.129172
0.124916
0.128239
0.129861
0.128915
0.129919
0.127534
0.127607
0.125244
0.129724
0.131462
0.128762
0.128405
0.128328
0.12974
0.127854
0.127824
0.126039
0.12839
0.128957
0.12963
0.128109
0.128691
0.128714
0.12782
0.127338
0.128866
0.128998
0.128936
0.128955
0.129177
0.129
0.127807
0.12951
0.128992
0.129445
0.128979
0.128876
0.129675
0.129734
0.12987
0.129987
0.129852
0.129996
0.129897
0.130033
0.129972
0.129881
0.129859
0.129292
0.129147
0.129731
0.129738
0.129774
0.129426
0.129479
0.129233
0.12899
0.128795
0.127995
0.128371
0.128965
0.127321
0.127933
0.12856
0.128858
0.128353
0.128797
0.12939
0.127996
0.127661
0.126084
0.128377
0.129115
0.128958
0.128748
0.128179
0.130343
0.130252
0.128176
0.12515
0.128365
0.128805
0.128711
0.13036
0.127809
0.127329
0.126118
0.131063
0.127366
0.130628
0.131906
0.130224
0.127429
0.12511
0.128606
0.128149
0.128291
0.125094
0.132167
0.127884
0.127597
0.125706
0.130368
0.128283
0.129823
0.128218
0.123894
0.127363
0.128811
0.130976
0.128648
0.127162
0.128184
0.129126
0.128117
0.125906
0.127362
0.126864
0.128475
0.128711
0.127569
0.127979
0.127874
0.126403
0.127305
0.1277
0.128054
0.127668
0.127751
0.128248
0.127328
0.127376
0.128127
0.128088
0.128152
0.127768
0.127779
0.127988
0.128094
0.128274
0.128581
0.128552
0.128654
0.128557
0.128624
0.128583
0.128368
0.128291
0.128033
0.128028
0.128198
0.128148
0.12859
0.127975
0.128029
0.128211
0.127845
0.127542
0.126805
0.127459
0.128271
0.127292
0.126515
0.127897
0.128155
0.127525
0.128099
0.12879
0.127774
0.125702
0.127331
0.126812
0.12899
0.128702
0.127689
0.128487
0.1295
0.129818
0.126402
0.127463
0.126001
0.129237
0.128053
0.129925
0.128137
0.124809
0.127684
0.129866
0.125354
0.129939
0.131952
0.128987
0.129132
0.12516
0.128628
0.12853
0.128248
0.127436
0.132286
0.128592
0.124683
0.128005
0.129498
0.128618
0.129933
0.126889
0.127332
0.124803
0.129208
0.131008
0.1284
0.128084
0.128144
0.129321
0.127405
0.127447
0.125604
0.127937
0.128363
0.128713
0.127538
0.128028
0.127835
0.127255
0.126604
0.128096
0.128092
0.127932
0.127939
0.128272
0.127929
0.127076
0.12819
0.128188
0.128227
0.12769
0.127919
0.128357
0.128511
0.128535
0.12862
0.128577
0.128625
0.128614
0.128587
0.128669
0.128562
0.128548
0.128027
0.128028
0.128366
0.12851
0.128545
0.128353
0.128018
0.128307
0.128019
0.127888
0.127239
0.127564
0.128266
0.126656
0.127361
0.127693
0.128159
0.127814
0.128267
0.128839
0.127473
0.127321
0.125565
0.127972
0.128565
0.128737
0.128397
0.127843
0.129937
0.129788
0.127848
0.124773
0.128014
0.128563
0.128326
0.130093
0.127759
0.127073
0.125626
0.130633
0.126966
0.130106
0.131891
0.130033
0.127141
0.124315
0.128032
0.128346
0.128052
0.125082
0.132118
0.127457
0.12728
0.125482
0.129863
0.127987
0.129415
0.127826
0.123571
0.127048
0.12852
0.130548
0.128343
0.126853
0.127748
0.128683
0.127749
0.125509
0.126998
0.126485
0.128059
0.128165
0.127056
0.127534
0.127167
0.12581
0.126796
0.127242
0.12735
0.127057
0.127105
0.127584
0.126682
0.126846
0.126963
0.127243
0.127239
0.126814
0.12704
0.127127
0.127422
0.127536
0.12761
0.127619
0.127671
0.127656
0.127581
0.127664
0.127476
0.127431
0.127194
0.127206
0.127312
0.127398
0.127737
0.127337
0.127221
0.127512
0.127287
0.12692
0.126218
0.126963
0.127718
0.12686
0.126002
0.127265
0.127704
0.127051
0.127586
0.128416
0.127381
0.125283
0.126966
0.126371
0.128559
0.128322
0.127426
0.128107
0.129204
0.129473
0.126057
0.127154
0.125511
0.12864
0.127749
0.129673
0.127976
0.124443
0.127346
0.129294
0.124939
0.129606
0.13155
0.128822
0.128775
0.124564
0.127661
0.128216
0.127949
0.126928
0.13183
0.12823
0.124229
0.12756
0.128937
0.12809
0.12918
0.126261
0.126835
0.12431
0.128625
0.130506
0.127737
0.127478
0.127541
0.128685
0.126758
0.126866
0.124989
0.127323
0.127799
0.128157
0.126963
0.127463
0.126983
0.126554
0.12591
0.127241
0.127241
0.127055
0.127083
0.127344
0.127017
0.126252
0.12715
0.12717
0.127199
0.126828
0.126734
0.12731
0.127301
0.127443
0.127436
0.127348
0.127466
0.127313
0.127487
0.127397
0.127458
0.127356
0.126964
0.126947
0.127358
0.127337
0.127522
0.127179
0.127125
0.127227
0.127273
0.12688
0.126611
0.126726
0.127558
0.125987
0.126687
0.126891
0.127558
0.127156
0.12748
0.128254
0.126886
0.126745
0.124974
0.127344
0.127915
0.127978
0.127716
0.127375
0.129436
0.12931
0.127387
0.124153
0.127456
0.127817
0.127633
0.129574
0.127333
0.126548
0.125133
0.129966
0.126535
0.129377
0.131458
0.129516
0.126813
0.123486
0.127378
0.127636
0.127498
0.124515
0.13148
0.127131
0.126807
0.125345
0.129578
0.127468
0.128786
0.127349
0.123048
0.126559
0.128206
0.130167
0.127739
0.126468
0.127423
0.128168
0.127193
0.124886
0.126509
0.125974
0.127545
0.127493
0.126491
0.126983
0.126498
0.125246
0.126175
0.12655
0.126689
0.126403
0.126481
0.126837
0.126032
0.126149
0.126163
0.126624
0.126398
0.126065
0.126159
0.12637
0.126417
0.12663
0.126685
0.126649
0.126742
0.126647
0.126691
0.126697
0.126649
0.126552
0.126337
0.126395
0.126602
0.1266
0.12682
0.126499
0.126483
0.126577
0.126719
0.126239
0.12561
0.126338
0.12709
0.126235
0.125419
0.126588
0.127147
0.126532
0.127114
0.127814
0.126868
0.124792
0.12647
0.125746
0.127979
0.127938
0.126919
0.127539
0.128744
0.129148
0.125693
0.126655
0.125069
0.12815
0.127064
0.129153
0.127441
0.123912
0.126855
0.128768
0.124542
0.129085
0.131328
0.128534
0.128254
0.124027
0.127246
0.127555
0.127259
0.126385
0.131248
0.127425
0.123903
0.127063
0.128832
0.127564
0.128483
0.125748
0.126361
0.123906
0.128293
0.130029
0.127314
0.126935
0.127091
0.128225
0.126233
0.126402
0.124609
0.126762
0.127276
0.127532
0.126342
0.126851
0.126309
0.126021
0.12531
0.126612
0.126617
0.126371
0.126332
0.126684
0.12621
0.125688
0.126324
0.12655
0.126386
0.125973
0.126048
0.126438
0.126495
0.126466
0.126511
0.126436
0.126534
0.126511
0.126466
0.126552
0.1265
0.126501
0.126213
0.12614
0.1265
0.126526
0.126563
0.126485
0.126294
0.126514
0.126624
0.12619
0.125974
0.126171
0.126978
0.125402
0.126056
0.126245
0.126957
0.126531
0.12691
0.127666
0.126382
0.126283
0.124544
0.126847
0.127505
0.127625
0.127249
0.1268
0.12887
0.129021
0.126855
0.123812
0.127007
0.127157
0.127047
0.129138
0.126944
0.126155
0.124637
0.129546
0.125993
0.128899
0.131153
0.129088
0.126229
0.12287
0.126867
0.12749
0.127147
0.124042
0.131094
0.126355
0.126326
0.125017
0.128882
0.126979
0.128271
0.126854
0.122677
0.12611
0.12789
0.129643
0.12716
0.125995
0.126756
0.127623
0.126756
0.124452
0.126018
0.125507
0.126983
0.126992
0.125989
0.126483
0.125957
0.124744
0.125639
0.126046
0.126075
0.125832
0.125869
0.126185
0.125439
0.125562
0.125559
0.126044
0.125666
0.125459
0.125487
0.125722
0.125639
0.125834
0.125854
0.125844
0.125933
0.125921
0.125892
0.125939
0.125939
0.125842
0.125618
0.125667
0.125825
0.125952
0.126007
0.125883
0.1258
0.125857
0.126103
0.125642
0.125076
0.125762
0.126629
0.125696
0.124935
0.126071
0.126544
0.12607
0.126477
0.127374
0.126334
0.124461
0.125966
0.125261
0.127644
0.127271
0.126355
0.127086
0.128156
0.128719
0.125357
0.126154
0.124651
0.127818
0.126434
0.128627
0.127048
0.123571
0.126428
0.128171
0.12418
0.128456
0.130787
0.128079
0.127758
0.123514
0.126755
0.127202
0.126716
0.125968
0.130706
0.126862
0.123482
0.126572
0.128249
0.126999
0.128164
0.125141
0.125872
0.123573
0.127834
0.129485
0.126703
0.12645
0.12662
0.127634
0.125699
0.125913
0.124126
0.126269
0.126697
0.127038
0.125793
0.126329
0.125712
0.125418
0.124779
0.126037
0.125992
0.125704
0.125788
0.126014
0.125568
0.125029
0.125622
0.125888
0.125756
0.12539
0.125343
0.125796
0.125701
0.125784
0.125751
0.12566
0.125757
0.125646
0.125733
0.12569
0.125815
0.125687
0.125515
0.125419
0.125777
0.125769
0.125847
0.125755
0.125622
0.125783
0.125992
0.125493
0.125396
0.125528
0.126445
0.124892
0.125598
0.125697
0.126503
0.125953
0.126496
0.12716
0.125879
0.125805
0.124026
0.126266
0.126969
0.127071
0.126776
0.126377
0.128279
0.128491
0.126474
0.123328
0.126451
0.126955
0.126382
0.128543
0.126474
0.12568
0.124378
0.128977
0.12552
0.128427
0.130719
0.128554
0.125777
0.1224
0.126676
0.126844
0.126631
0.123897
0.130408
0.125844
0.125887
0.124715
0.128671
0.126537
0.127684
0.12634
0.122364
0.125594
0.127615
0.129217
0.126762
0.12536
0.126306
0.127342
0.126226
0.124021
0.125571
0.125158
0.126631
0.126584
0.125395
0.126048
0.12544
0.124306
0.125159
0.125554
0.125571
0.125344
0.125348
0.125681
0.124926
0.12505
0.125059
0.125528
0.12511
0.124968
0.124965
0.125165
0.125109
0.125217
0.125254
0.125188
0.125327
0.125232
0.125248
0.125257
0.125299
0.125256
0.125066
0.125122
0.125215
0.125317
0.125343
0.125247
0.125246
0.125279
0.125601
0.125162
0.124538
0.125265
0.126035
0.12516
0.124419
0.125527
0.126146
0.125439
0.125928
0.126856
0.125891
0.123966
0.125504
0.124854
0.127124
0.126863
0.125986
0.126601
0.127754
0.128295
0.124961
0.125688
0.124247
0.127101
0.126033
0.128055
0.126621
0.123243
0.126068
0.127906
0.123727
0.128157
0.130535
0.127711
0.127285
0.123106
0.126346
0.126784
0.126533
0.125483
0.130026
0.126581
0.12315
0.126193
0.127725
0.126565
0.127544
0.124693
0.125297
0.123163
0.127543
0.129025
0.126077
0.125832
0.126001
0.127369
0.125242
0.125377
0.123658
0.12571
0.126457
0.126417
0.125247
0.125827
0.125231
0.124853
0.124369
0.125439
0.125417
0.125253
0.125181
0.12546
0.125061
0.124515
0.125108
0.125361
0.125125
0.124813
0.124741
0.125074
0.125051
0.125107
0.125122
0.125007
0.125079
0.125018
0.1251
0.125033
0.125167
0.125047
0.124958
0.124881
0.125117
0.125176
0.125162
0.12511
0.12512
0.125147
0.125412
0.124912
0.124845
0.124941
0.125827
0.124402
0.124979
0.125154
0.125922
0.125427
0.125833
0.126696
0.12538
0.125244
0.123625
0.125723
0.12659
0.12652
0.126205
0.125749
0.127844
0.127963
0.126064
0.123036
0.125931
0.126382
0.126144
0.128089
0.125976
0.125187
0.123888
0.12859
0.125087
0.1277
0.130135
0.128197
0.125191
0.122027
0.12625
0.126522
0.126158
0.123261
0.129904
0.125576
0.1254
0.124162
0.127865
0.125963
0.127403
0.125733
0.121945
0.125096
0.127357
0.128663
0.126098
0.124968
0.125827
0.126711
0.125727
0.123624
0.125007
0.124729
0.126055
0.125942
0.124832
0.1254
0.124906
0.123857
0.124611
0.125032
0.125089
0.124793
0.12483
0.125063
0.124416
0.124587
0.124523
0.125017
0.12461
0.124364
0.124391
0.124648
0.124534
0.124613
0.124655
0.124577
0.124589
0.12457
0.1246
0.124627
0.124757
0.124653
0.124496
0.12453
0.124642
0.124708
0.124785
0.124739
0.124644
0.124681
0.125011
0.124693
0.12404
0.124639
0.12545
0.124685
0.123994
0.125071
0.125755
0.124904
0.125547
0.126389
0.125415
0.123566
0.124946
0.124438
0.126703
0.126473
0.12547
0.126013
0.127252
0.127886
0.12467
0.12514
0.123845
0.126854
0.125381
0.127835
0.12612
0.122856
0.125614
0.127157
0.123123
0.127822
0.129645
0.126955
0.126771
0.12261
0.126168
0.126451
0.126021
0.125246
0.129677
0.125956
0.122829
0.125557
0.127354
0.125933
0.127206
0.124148
0.124952
0.122729
0.127259
0.128541
0.125813
0.1252
0.125763
0.126697
0.124776
0.124826
0.123242
0.125282
0.125833
0.125846
0.124763
0.125277
0.124696
0.124487
0.123924
0.124942
0.125036
0.124708
0.124704
0.124972
0.124466
0.124174
0.124507
0.124857
0.124594
0.124284
0.124336
0.124563
0.124583
0.12453
0.124535
0.124402
0.124512
0.124464
0.124468
0.124548
0.12463
0.124594
0.124384
0.124289
0.124663
0.124572
0.124737
0.124555
0.124525
0.124651
0.124984
0.124543
0.124398
0.124439
0.125434
0.124026
0.124505
0.124774
0.125601
0.124926
0.125377
0.126254
0.125033
0.124741
0.123202
0.125371
0.125936
0.126269
0.125645
0.125294
0.127351
0.127728
0.125573
0.122594
0.125606
0.125809
0.125471
0.127641
0.125789
0.12469
0.123728
0.127965
0.124569
0.127717
0.129635
0.127597
0.12456
0.121632
0.125976
0.126232
0.125841
0.122854
0.129355
0.125165
0.124949
0.123939
0.127719
0.12567
0.126767
0.125614
0.121608
0.124689
0.1269
0.128371
0.125525
0.124356
0.125294
0.126331
0.125314
0.123143
0.124548
0.124216
0.125738
0.125564
0.124403
0.12515
0.124526
0.123383
0.124301
0.124563
0.12462
0.12442
0.124316
0.124789
0.123988
0.124123
0.124121
0.12454
0.124126
0.123996
0.123942
0.12414
0.124041
0.124126
0.124109
0.124115
0.124105
0.124152
0.124169
0.124096
0.124272
0.124167
0.12404
0.124088
0.124173
0.124315
0.124342
0.124272
0.124223
0.12427
0.124621
0.124197
0.123745
0.124248
0.12516
0.124189
0.123538
0.124542
0.1252
0.124532
0.125049
0.125955
0.124923
0.123131
0.124635
0.123967
0.126053
0.125952
0.125111
0.125593
0.126872
0.127328
0.124357
0.124698
0.123546
0.126267
0.12502
0.127362
0.125653
0.122649
0.125207
0.12697
0.12293
0.12774
0.129506
0.126939
0.126255
0.122215
0.125807
0.126131
0.125395
0.124657
0.129056
0.12572
0.122561
0.125087
0.127081
0.125617
0.126641
0.123941
0.124421
0.122428
0.126764
0.128126
0.125066
0.125043
0.125102
0.12627
0.124497
0.124539
0.122935
0.124774
0.125442
0.125556
0.124351
0.12504
0.124224
0.123979
0.123565
0.124562
0.124633
0.124275
0.124225
0.124632
0.124033
0.123618
0.124044
0.124438
0.124088
0.123804
0.123811
0.124138
0.124009
0.124017
0.124018
0.124074
0.123981
0.124078
0.124023
0.12397
0.124134
0.124035
0.123953
0.123903
0.12411
0.124157
0.124298
0.124235
0.124055
0.124215
0.124511
0.123934
0.124073
0.12401
0.124912
0.123586
0.124032
0.12414
0.124944
0.124542
0.125005
0.125671
0.124563
0.124427
0.122835
0.124846
0.125574
0.12559
0.125456
0.124905
0.126935
0.127046
0.125123
0.122323
0.125069
0.125598
0.125031
0.127303
0.125012
0.124197
0.123354
0.127397
0.124053
0.127374
0.129319
0.127322
0.124182
0.121248
0.125695
0.125991
0.125403
0.122923
0.128933
0.124741
0.124621
0.123426
0.127149
0.125113
0.126511
0.124981
0.121381
0.124261
0.126559
0.127894
0.125631
0.123939
0.125144
0.126074
0.125137
0.122888
0.124234
0.12401
0.125556
0.125292
0.124052
0.124683
0.124227
0.123152
0.123917
0.124275
0.12438
0.123938
0.124026
0.124323
0.123666
0.123657
0.123694
0.124247
0.123777
0.12355
0.123646
0.123837
0.123765
0.123813
0.123834
0.123696
0.123803
0.123777
0.123908
0.123806
0.123848
0.123864
0.123656
0.123719
0.123884
0.123914
0.124085
0.123878
0.123914
0.123804
0.12425
0.123824
0.123347
0.123976
0.12489
0.123913
0.12323
0.12439
0.124783
0.12429
0.124675
0.125738
0.124729
0.122829
0.12423
0.123746
0.125828
0.125546
0.124566
0.125415
0.126533
0.126913
0.123826
0.124285
0.123301
0.126002
0.124582
0.126941
0.12541
0.122054
0.124962
0.126549
0.122506
0.127266
0.129145
0.126448
0.125892
0.121872
0.125336
0.125797
0.125538
0.124246
0.128536
0.125385
0.122323
0.124857
0.12661
0.12518
0.126509
0.12361
0.12407
0.122053
0.126452
0.127763
0.124774
0.124454
0.124802
0.126125
0.12416
0.124119
0.122633
0.124318
0.125447
0.125179
0.123983
0.124735
0.124118
0.12359
0.123342
0.124362
0.124273
0.123843
0.123997
0.124232
0.123775
0.123303
0.123749
0.124176
0.123894
0.123586
0.123452
0.12376
0.123662
0.123819
0.123663
0.123688
0.123718
0.123599
0.123851
0.123666
0.123817
0.123676
0.123627
0.123549
0.123759
0.12383
0.123915
0.123882
0.123918
0.123865
0.124164
0.123699
0.12358
0.123738
0.124835
0.123228
0.123839
0.124124
0.124992
0.124257
0.124676
0.125633
0.124203
0.124026
0.122653
0.124325
0.125292
0.125359
0.124877
0.124419
0.1267
0.12678
0.125049
0.121941
0.124835
0.125343
0.124817
0.127041
0.124623
0.123889
0.123053
0.127213
0.123684
0.127142
0.129048
0.127221
0.123877
0.12096
0.125336
0.125773
0.125122
0.122546
0.128559
0.124561
0.124349
0.123075
0.126839
0.124987
0.126116
0.124881
0.121062
0.123943
0.126459
0.127522
0.124909
0.12389
0.124576
0.125763
0.124624
0.122684
0.123873
0.123591
0.125094
0.124984
0.12377
0.124625
0.123749
0.122691
0.123587
0.124178
0.123961
0.123784
0.123734
0.124129
0.123325
0.123509
0.123482
0.123904
0.123474
0.123345
0.123276
0.123738
0.123386
0.123421
0.12353
0.123516
0.123458
0.123367
0.123445
0.123577
0.123513
0.123547
0.123431
0.123376
0.123603
0.123534
0.123617
0.123666
0.123524
0.123647
0.124092
0.123615
0.122989
0.123679
0.124405
0.123557
0.122949
0.123767
0.124816
0.123929
0.124519
0.125206
0.12431
0.122687
0.123885
0.123346
0.125398
0.125328
0.124348
0.124918
0.126164
0.126818
0.123625
0.124035
0.122975
0.125751
0.124331
0.126692
0.124874
0.121916
0.12463
0.126115
0.12212
0.126942
0.128869
0.126265
0.125539
0.121519
0.125338
0.125688
0.124872
0.124159
0.128282
0.124984
0.122134
0.124436
0.126203
0.125022
0.126086
0.12338
0.123846
0.121935
0.126263
0.127441
0.124798
0.12411
0.124734
0.125764
0.123811
0.123836
0.122389
0.124299
0.125225
0.124906
0.123822
0.124297
0.123584
0.123256
0.122961
0.123979
0.123947
0.123755
0.123769
0.123941
0.123398
0.12302
0.123452
0.123816
0.123499
0.123235
0.123295
0.123612
0.123455
0.123461
0.123545
0.123334
0.123418
0.12341
0.123312
0.123561
0.123457
0.12355
0.123325
0.123249
0.123613
0.123513
0.123551
0.123437
0.123458
0.123543
0.124085
0.123344
0.123341
0.123445
0.124511
0.123204
0.123498
0.123623
0.124581
0.123995
0.124262
0.125289
0.124157
0.123716
0.122331
0.124305
0.125021
0.125222
0.124645
0.124524
0.126285
0.126489
0.12452
0.121859
0.124542
0.125146
0.124395
0.126575
0.124788
0.123586
0.122991
0.126775
0.123524
0.126598
0.128852
0.12668
0.123594
0.120748
0.125174
0.125336
0.125123
0.122256
0.128052
0.124219
0.124058
0.123092
0.126521
0.124651
0.125836
0.124637
0.120928
0.123684
0.126062
0.127371
0.12462
0.123456
0.124423
0.125582
0.124432
0.122372
0.123734
0.123356
0.125203
0.124891
0.123568
0.124325
0.123689
0.122532
0.123153
0.123595
0.123893
0.123417
0.123626
0.12379
0.12318
0.123243
0.123248
0.123671
0.123323
0.123184
0.123058
0.123274
0.123192
0.123326
0.123253
0.12309
0.123123
0.123216
0.123215
0.123231
0.123218
0.123233
0.123219
0.123207
0.123278
0.12339
0.123518
0.123246
0.123342
0.123369
0.123869
0.12335
0.12287
0.123361
0.124489
0.12334
0.122866
0.123986
0.124524
0.123666
0.124273
0.125255
0.123935
0.122335
0.123724
0.123003
0.12532
0.125092
0.124192
0.124606
0.126059
0.126532
0.123644
0.123653
0.122793
0.125629
0.12412
0.126468
0.124738
0.121791
0.124338
0.126081
0.121982
0.126688
0.128812
0.126134
0.125252
0.121336
0.124997
0.125352
0.125029
0.123784
0.128018
0.124774
0.12215
0.124152
0.12611
0.124797
0.125706
0.123355
0.123515
0.121711
0.126048
0.127155
0.124262
0.1241
0.124255
0.125474
0.123817
0.123617
0.122248
0.123689
0.124829
0.124925
0.12354
0.124319
0.123214
0.123197
0.12262
0.123577
0.123807
0.1234
0.123484
0.12374
0.123129
0.122992
0.123222
0.123618
0.123191
0.123109
0.123019
0.123222
0.123192
0.12316
0.123181
0.123069
0.123101
0.123107
0.123222
0.123134
0.123162
0.123193
0.12322
0.123025
0.123256
0.123242
0.12352
0.123263
0.123198
0.123472
0.123825
0.123349
0.123032
0.123137
0.124171
0.122859
0.12325
0.123517
0.12442
0.123778
0.124252
0.124947
0.12369
0.123587
0.12215
0.123864
0.124716
0.124936
0.124343
0.123984
0.126116
0.12662
0.124291
0.12169
0.124266
0.12491
0.124125
0.126345
0.124246
0.123336
0.122666
0.126368
0.123136
0.126467
0.128682
0.126569
0.123377
0.120542
0.125176
0.125434
0.1248
0.122339
0.127822
0.124004
0.123843
0.122667
0.126091
0.124638
0.125662
0.124286
0.120787
0.123408
0.125901
0.127105
0.12477
0.123247
0.124334
0.125356
0.124129
0.122286
0.123433
0.12316
0.124673
0.124368
0.123466
0.123942
0.123303
0.122357
0.123185
0.123735
0.123585
0.123487
0.123372
0.123863
0.122846
0.122908
0.123118
0.123475
0.123127
0.12283
0.122949
0.123054
0.123119
0.123072
0.123271
0.123056
0.123109
0.123089
0.123122
0.123051
0.123186
0.123149
0.122936
0.12306
0.123224
0.12326
0.123194
0.123171
0.123232
0.123136
0.123717
0.123161
0.122596
0.123167
0.124166
0.123308
0.122495
0.123464
0.124287
0.123708
0.123989
0.12497
0.123988
0.122158
0.123397
0.123078
0.12501
0.124971
0.123967
0.124699
0.125844
0.126417
0.123186
0.123455
0.122633
0.125314
0.123735
0.126084
0.124774
0.121557
0.124184
0.125589
0.121937
0.126161
0.128611
0.125895
0.125049
0.121154
0.125148
0.124964
0.124805
0.123376
0.127602
0.124762
0.121847
0.12401
0.125696
0.124639
0.125485
0.123036
0.123257
0.121578
0.12593
0.127074
0.124014
0.123679
0.124132
0.125391
0.123463
0.123311
0.122065
0.123623
0.124641
0.124349
0.123444
0.124128
0.123438
0.122883
0.122487
0.12379
0.123663
0.123224
0.123397
0.123801
0.123015
0.122691
0.123237
0.123276
0.123326
0.122893
0.122781
0.123036
0.122942
0.123143
0.123079
0.123106
0.122933
0.12308
0.122951
0.123101
0.123171
0.122974
0.122992
0.123089
0.123058
0.123363
0.123288
0.123063
0.123215
0.123112
0.123539
0.123018
0.122991
0.122859
0.12411
0.122709
0.122929
0.123153
0.124141
0.123599
0.124116
0.124944
0.123427
0.123196
0.12197
0.123544
0.124753
0.124777
0.124455
0.123856
0.126016
0.126126
0.12429
0.121513
0.12413
0.124696
0.123997
0.12619
0.124027
0.123263
0.12249
0.126301
0.122923
0.126096
0.128571
0.126409
0.123268
0.120465
0.125054
0.124906
0.124929
0.122052
0.127368
0.12405
0.123652
0.122585
0.126012
0.12447
0.12523
0.12435
0.120616
0.123194
0.125877
0.12684
0.124285
0.123247
0.123929
0.125093
0.124129
0.122032
0.123229
0.123068
0.12474
0.124736
0.12329
0.124139
0.122999
0.122266
0.122893
0.123309
0.123624
0.123183
0.123254
0.123435
0.122698
0.122934
0.122873
0.123467
0.122849
0.122898
0.122786
0.123039
0.123034
0.122898
0.12319
0.12279
0.122806
0.122808
0.122965
0.123118
0.122911
0.122993
0.123004
0.122841
0.123125
0.123014
0.123251
0.123041
0.122957
0.123254
0.123702
0.123167
0.1224
0.122942
0.12376
0.122795
0.122374
0.123189
0.123911
0.12342
0.124011
0.124819
0.123581
0.121964
0.123171
0.122661
0.124804
0.124688
0.123936
0.124292
0.125585
0.12602
0.122935
0.123308
0.122425
0.125032
0.123624
0.125965
0.124163
0.121607
0.123975
0.125214
0.121595
0.125949
0.128493
0.125903
0.124834
0.120925
0.12506
0.125087
0.124639
0.123461
0.127158
0.124496
0.121859
0.123804
0.12546
0.124615
0.125333
0.122835
0.12311
0.12147
0.125686
0.126805
0.124195
0.12344
0.124095
0.125129
0.123286
0.123228
0.121873
0.123388
0.124696
0.124433
0.123364
0.123726
0.122902
0.12269
0.122521
0.123427
0.123425
0.123306
0.123229
0.123543
0.122869
0.122471
0.122943
0.123488
0.122979
0.122824
0.122835
0.122848
0.123134
0.12293
0.123192
0.122778
0.122883
0.122828
0.123026
0.12288
0.122964
0.123067
0.122816
0.122771
0.123194
0.123025
0.12301
0.123111
0.122966
0.122962
0.123703
0.122869
0.12261
0.122891
0.123987
0.122396
0.122934
0.123041
0.123971
0.123524
0.123731
0.124844
0.123584
0.123083
0.121706
0.12359
0.124575
0.124603
0.123974
0.124019
0.125669
0.126
0.123585
0.121397
0.123933
0.124467
0.123678
0.126003
0.124169
0.12315
0.122447
0.126007
0.122754
0.125694
0.128342
0.126207
0.12296
0.120256
0.125039
0.124789
0.124625
0.121992
0.127139
0.123796
0.123404
0.12256
0.125615
0.124397
0.125082
0.124136
0.120471
0.12299
0.125509
0.126763
0.12409
0.122944
0.123933
0.124959
0.123811
0.121892
0.1231
0.122792
0.124488
0.124087
0.123201
0.123927
0.123242
0.122014
0.122672
0.123433
0.123444
0.123024
0.123278
0.123557
0.122638
0.122682
0.122998
0.123052
0.123167
0.122797
0.122654
0.122838
0.122694
0.122868
0.122858
0.122851
0.122883
0.12281
0.1227
0.122611
0.122953
0.122776
0.122773
0.122867
0.122905
0.123097
0.123057
0.122863
0.122953
0.122894
0.123439
0.122675
0.122338
0.122682
0.12399
0.122775
0.122163
0.123246
0.124089