/*--------------------------------*- C++ -*----------------------------------*\
| =========                 |                                                 |
| \\      /  F ield         | OpenFOAM: The Open Source CFD Toolbox           |
|  \\    /   O peration     | Version:  2312                                  |
|   \\  /    A nd           | Website:  www.openfoam.com                      |
|    \\/     M anipulation  |                                                 |
\*---------------------------------------------------------------------------*/
FoamFile
{
    version     2.0;
    format      ascii;
    arch        "LSB;label=32;scalar=64";
    class       volScalarField;
    location    "3";
    object      alpha.water;
}
// * * * * * * * * * * * * * * * * * * * * * * * * * * * * * * * * * * * * * //

dimensions      [0 0 0 0 0 0 0];

internalField   nonuniform List<scalar> 
50000
(
0.792702
0.797998
0.804132
0.812579
0.810934
0.795833
0.796918
0.79943
0.805484
0.808572
0.800953
0.794161
0.794641
0.793806
0.796181
0.794924
0.804544
0.807777
0.807148
0.801856
0.798702
0.796809
0.796214
0.797144
0.797344
0.798444
0.807006
0.806024
0.801556
0.798615
0.796185
0.795798
0.796213
0.802525
0.803861
0.803485
0.801113
0.797799
0.797426
0.790468
0.804334
0.801629
0.798266
0.797479
0.785637
0.787051
0.782196
0.780875
0.779058
0.77754
0.778644
0.777144
0.778609
0.783682
0.781927
0.797318
0.797308
0.790265
0.794468
0.793344
0.795386
0.794464
0.800404
0.798003
0.79606
0.797442
0.79586
0.803134
0.796163
0.79623
0.79778
0.800272
0.803699
0.80445
0.801653
0.796213
0.797083
0.797155
0.795438
0.796784
0.797167
0.802412
0.809282
0.805441
0.807218
0.797449
0.799543
0.795985
0.796927
0.795497
0.804973
0.807301
0.805109
0.795928
0.795507
0.79513
0.799288
0.798934
0.807929
0.806364
0.84148
0.843965
0.839728
0.843564
0.839278
0.838416
0.839282
0.836956
0.840643
0.839595
0.835482
0.839987
0.847477
0.851175
0.842704
0.835382
0.840279
0.840493
0.836585
0.836561
0.837852
0.840875
0.840333
0.83787
0.83874
0.835482
0.83723
0.838348
0.835764
0.836707
0.841644
0.841201
0.835204
0.835146
0.835765
0.835585
0.835184
0.83735
0.840115
0.829604
0.833953
0.831418
0.834625
0.835169
0.82495
0.823354
0.821509
0.820301
0.820424
0.819146
0.820047
0.818798
0.819426
0.82185
0.821822
0.832521
0.832511
0.826015
0.826774
0.826665
0.827646
0.828032
0.83164
0.832966
0.836855
0.840909
0.831767
0.836325
0.837835
0.840616
0.838169
0.835752
0.837802
0.838211
0.83636
0.837489
0.838211
0.838832
0.84112
0.84129
0.837427
0.836842
0.837675
0.840059
0.838335
0.83619
0.841838
0.844706
0.843526
0.83736
0.838114
0.841737
0.839328
0.839513
0.839834
0.839975
0.840977
0.839474
0.839718
0.840675
0.868494
0.87178
0.867242
0.876342
0.867005
0.867671
0.869931
0.867711
0.866646
0.870641
0.862668
0.868288
0.871096
0.87239
0.871095
0.863448
0.865696
0.872876
0.865875
0.868021
0.871141
0.872964
0.872652
0.870737
0.871243
0.866734
0.867932
0.87187
0.86801
0.870421
0.871623
0.873379
0.868832
0.867423
0.868604
0.868333
0.868048
0.87112
0.872891
0.86581
0.867012
0.866682
0.869417
0.869389
0.863435
0.863382
0.862803
0.861419
0.861524
0.861134
0.861473
0.86091
0.861729
0.862632
0.862636
0.867609
0.867811
0.864811
0.864118
0.864081
0.865134
0.866325
0.867144
0.868154
0.869348
0.872834
0.867512
0.868693
0.871182
0.871983
0.871419
0.867556
0.871386
0.871294
0.867046
0.869717
0.871084
0.871363
0.87321
0.873441
0.870497
0.867513
0.865914
0.873427
0.869557
0.865245
0.873207
0.873859
0.873613
0.86631
0.868584
0.873178
0.869875
0.86848
0.871653
0.868805
0.871187
0.868156
0.867622
0.87239
0.874722
0.874908
0.86884
0.877021
0.868803
0.867702
0.870242
0.867657
0.870916
0.871044
0.862749
0.867929
0.874743
0.871097
0.873356
0.863542
0.864769
0.874624
0.87155
0.868032
0.870501
0.873137
0.872711
0.870699
0.87125
0.866738
0.868118
0.871964
0.868011
0.869619
0.872095
0.873933
0.869015
0.867417
0.86835
0.868619
0.868043
0.870893
0.872935
0.865868
0.867325
0.866645
0.868959
0.86958
0.863978
0.863159
0.86268
0.861402
0.861688
0.86118
0.861342
0.860912
0.861752
0.862573
0.862783
0.867911
0.867567
0.864171
0.864123
0.864377
0.864378
0.864407
0.867396
0.868082
0.870113
0.873273
0.867515
0.868302
0.870972
0.872355
0.87097
0.867555
0.871533
0.871158
0.86705
0.869917
0.87103
0.871623
0.873554
0.873618
0.870121
0.867568
0.870454
0.872988
0.869197
0.865281
0.873652
0.873615
0.874444
0.866328
0.869502
0.873462
0.869032
0.868971
0.8723
0.871498
0.872165
0.867925
0.86762
0.87399
0.878943
0.878705
0.870056
0.876345
0.872216
0.869416
0.871833
0.87092
0.872478
0.870918
0.86382
0.870147
0.871098
0.877639
0.871097
0.865164
0.869891
0.87288
0.873374
0.87142
0.873481
0.873025
0.873896
0.873031
0.873466
0.870344
0.873067
0.874047
0.87153
0.874087
0.874521
0.874087
0.87412
0.87139
0.872681
0.872984
0.871881
0.874854
0.874532
0.870127
0.871991
0.871753
0.873376
0.873857
0.872055
0.871424
0.871388
0.867495
0.867667
0.867457
0.867149
0.867067
0.870695
0.871342
0.871354
0.872131
0.872852
0.872131
0.872204
0.869331
0.872688
0.873052
0.873312
0.873627
0.874891
0.87546
0.874651
0.871666
0.87396
0.874527
0.87396
0.871088
0.874318
0.873894
0.870576
0.873553
0.873929
0.873554
0.874884
0.873554
0.87386
0.870163
0.87299
0.87545
0.87123
0.866754
0.873615
0.877205
0.873615
0.868922
0.872797
0.873522
0.871349
0.87219
0.873689
0.872929
0.873569
0.86966
0.872101
0.872476
0.878716
0.878153
0.869284
0.877964
0.871498
0.869609
0.87092
0.871601
0.870921
0.872064
0.864246
0.869187
0.876307
0.871099
0.87365
0.864688
0.871473
0.87535
0.87288
0.871446
0.873025
0.875072
0.87304
0.873984
0.87303
0.870362
0.873416
0.874735
0.87153
0.873453
0.87411
0.875871
0.872647
0.871392
0.872985
0.872439
0.871883
0.874517
0.875507
0.870118
0.871684
0.871956
0.873548
0.87337
0.869829
0.869027
0.868663
0.867631
0.867462
0.867075
0.867725
0.867071
0.867941
0.868583
0.868766
0.872898
0.872014
0.870047
0.869794
0.869336
0.870143
0.870106
0.871742
0.872181
0.874452
0.874898
0.872052
0.871654
0.874435
0.873961
0.874465
0.871087
0.873891
0.874223
0.870591
0.872859
0.873554
0.874633
0.873555
0.875599
0.873135
0.869342
0.873682
0.872993
0.870697
0.86671
0.875147
0.873616
0.87654
0.868857
0.87236
0.87529
0.871174
0.871207
0.872928
0.874699
0.872928
0.869698
0.871788
0.874959
0.880296
0.877988
0.870175
0.876344
0.871481
0.87059
0.87244
0.870921
0.874178
0.870919
0.864074
0.87039
0.871098
0.87853
0.871098
0.865129
0.871949
0.872884
0.8751
0.872149
0.874063
0.873041
0.874833
0.87304
0.874042
0.872851
0.873677
0.874048
0.872515
0.874143
0.875429
0.87411
0.874374
0.872583
0.873949
0.873962
0.873087
0.87521
0.874538
0.872082
0.874098
0.874793
0.875441
0.875204
0.87425
0.873663
0.873663
0.87051
0.870393
0.870138
0.870624
0.869966
0.873451
0.873812
0.873867
0.874543
0.874191
0.874236
0.874182
0.870902
0.872769
0.873071
0.872596
0.874784
0.874898
0.876319
0.874897
0.872345
0.87396
0.875446
0.873961
0.872299
0.874528
0.87389
0.870299
0.873554
0.87443
0.873555
0.875964
0.873555
0.873985
0.870133
0.872995
0.876284
0.871351
0.866988
0.873615
0.877962
0.873615
0.870427
0.871993
0.873523
0.871496
0.871675
0.875007
0.872929
0.874738
0.871042
0.871674
0.872478
0.879868
0.876302
0.86937
0.87776
0.870546
0.870924
0.87092
0.87303
0.870923
0.87226
0.864245
0.871092
0.877823
0.871099
0.875156
0.864689
0.870339
0.876028
0.872885
0.871629
0.873041
0.875286
0.873041
0.874238
0.873091
0.871497
0.87149
0.874637
0.87251
0.874587
0.874151
0.876118
0.87363
0.872593
0.873858
0.873851
0.873095
0.874537
0.875795
0.872055
0.873282
0.87356
0.874762
0.875641
0.871959
0.871464
0.871271
0.870343
0.870532
0.870343
0.869976
0.869961
0.870462
0.870939
0.870946
0.874188
0.874641
0.872426
0.872255
0.870904
0.872618
0.872604
0.872926
0.873287
0.875459
0.874906
0.874038
0.872318
0.874952
0.873961
0.875009
0.872296
0.873887
0.874615
0.870724
0.873759
0.873554
0.875099
0.873556
0.875787
0.873555
0.869147
0.874895
0.872999
0.870577
0.866924
0.874611
0.873616
0.876927
0.870323
0.870447
0.875754
0.872061
0.871814
0.872936
0.875814
0.872929
0.872909
0.872313
0.875435
0.882098
0.876747
0.870217
0.876372
0.870637
0.87088
0.872499
0.870923
0.874659
0.870923
0.865286
0.871334
0.871098
0.87935
0.871098
0.865654
0.869236
0.872887
0.875094
0.870634
0.874323
0.873042
0.87506
0.873103
0.874212
0.87145
0.872087
0.874043
0.872885
0.874235
0.87589
0.874151
0.874438
0.872917
0.874198
0.874107
0.873589
0.875567
0.874542
0.873335
0.874082
0.875041
0.875684
0.875311
0.875046
0.874457
0.874458
0.871789
0.872433
0.871806
0.871999
0.871738
0.872541
0.872334
0.872348
0.875096
0.87534
0.875011
0.874755
0.872088
0.874179
0.87418
0.87304
0.874827
0.874905
0.876618
0.874905
0.872451
0.873961
0.875798
0.873961
0.872882
0.87446
0.873885
0.871086
0.873552
0.874817
0.873556
0.876155
0.873556
0.874057
0.870134
0.873
0.875704
0.871257
0.867426
0.873615
0.878616
0.873615
0.870908
0.870862
0.873524
0.871014
0.872085
0.875008
0.872938
0.875626
0.872157
0.872816
0.872671
0.879869
0.878
0.870508
0.876828
0.870144
0.869905
0.870922
0.872575
0.870925
0.872431
0.865356
0.870443
0.878289
0.871098
0.874716
0.865726
0.868951
0.876658
0.872888
0.871627
0.87304
0.875379
0.873112
0.874632
0.873103
0.871492
0.87297
0.874557
0.872873
0.874844
0.874241
0.876256
0.874055
0.872932
0.874028
0.874146
0.8736
0.874542
0.876056
0.873307
0.8736
0.874161
0.875311
0.875831
0.87307
0.872536
0.872511
0.872318
0.87165
0.871827
0.872515
0.871789
0.871799
0.872445
0.872215
0.875515
0.875076
0.873542
0.873245
0.872089
0.873228
0.873877
0.87339
0.873772
0.87567
0.874914
0.875043
0.872413
0.875024
0.873962
0.875163
0.872877
0.873877
0.874014
0.87161
0.874067
0.873555
0.87567
0.873556
0.876099
0.873555
0.86921
0.873847
0.873001
0.871656
0.86727
0.874502
0.873615
0.877746
0.871539
0.870878
0.874948
0.870546
0.872634
0.873001
0.876474
0.872937
0.869516
0.871963
0.875318
0.882142
0.877239
0.872156
0.876373
0.867407
0.87014
0.872255
0.870926
0.874893
0.870925
0.865716
0.871486
0.871097
0.879676
0.871096
0.865517
0.86903
0.872888
0.874267
0.871211
0.874389
0.873113
0.875098
0.873112
0.874249
0.871634
0.872811
0.873782
0.873153
0.874241
0.876126
0.874241
0.874501
0.873017
0.874282
0.874284
0.873823
0.875682
0.874547
0.87476
0.873738
0.875076
0.875735
0.875312
0.875331
0.873184
0.873424
0.873233
0.873154
0.872925
0.873216
0.873549
0.872772
0.873547
0.873147
0.875735
0.875515
0.875201
0.874647
0.873046
0.874391
0.874383
0.873519
0.874821
0.874914
0.876696
0.874914
0.872584
0.873962
0.875947
0.873962
0.873287
0.874388
0.873881
0.870833
0.873553
0.874941
0.873556
0.875996
0.873556
0.874377
0.870358
0.873
0.875788
0.871048
0.867308
0.873613
0.878909
0.873615
0.872543
0.870888
0.873524
0.870627
0.873
0.875012
0.873001
0.874659
0.869417
0.870937
0.872471
0.879869
0.876409
0.874652
0.876423
0.867328
0.869844
0.870925
0.872561
0.870926
0.872821
0.865456
0.871094
0.878385
0.871097
0.873706
0.865404
0.869095
0.875052
0.872888
0.871647
0.873113
0.875686
0.873113
0.874778
0.873111
0.871871
0.872168
0.874191
0.873131
0.875025
0.874241
0.876267
0.874173
0.873035
0.87409
0.874263
0.873836
0.874546
0.876031
0.873824
0.87374
0.874461
0.875312
0.876019
0.873694
0.873269
0.87319
0.872941
0.8735
0.872941
0.873464
0.872709
0.872842
0.873048
0.873486
0.875515
0.875846
0.874068
0.873655
0.873037
0.873575
0.874219
0.873832
0.873999
0.875682
0.874923
0.875403
0.872559
0.87504
0.873963
0.875304
0.873271
0.873614
0.874138
0.870829
0.873263
0.873555
0.875599
0.873556
0.875856
0.873555
0.870668
0.873372
0.873014
0.871402
0.867464
0.874322
0.873615
0.877617
0.872481
0.871363
0.875055
0.870546
0.87239
0.87311
0.876165
0.873001
0.869672
0.870954
0.874764
0.882606
0.877149
0.874722
0.876602
0.867072
0.868809
0.872165
0.870595
0.874692
0.870924
0.865903
0.872177
0.871097
0.879364
0.871093
0.865703
0.869012
0.872891
0.874048
0.871797
0.874741
0.873113
0.875336
0.873152
0.874092
0.871928
0.872818
0.87403
0.87332
0.874241
0.876276
0.874241
0.874503
0.873097
0.874222
0.874363
0.873925
0.875701
0.87455
0.874799
0.873841
0.875091
0.8758
0.875338
0.875373
0.873795
0.873725
0.873673
0.874089
0.873627
0.874251
0.874128
0.873259
0.87427
0.874329
0.87587
0.875515
0.8753
0.874471
0.873683
0.874481
0.874507
0.873953
0.874636
0.874926
0.876691
0.874922
0.872849
0.873962
0.876025
0.873963
0.873561
0.874092
0.87381
0.871226
0.873553
0.87498
0.873556
0.876281
0.873556
0.87428
0.870844
0.873012
0.875456
0.871132
0.867347
0.873611
0.878892
0.873614
0.873362
0.872309
0.873524
0.871038
0.873109
0.875467
0.87311
0.875354
0.86839
0.870679
0.87238
0.87987
0.878667
0.874699
0.876656
0.867146
0.869018
0.870915
0.872076
0.870925
0.872302
0.866067
0.871093
0.87824
0.871096
0.874838
0.865838
0.869379
0.875258
0.872892
0.871789
0.873113
0.875465
0.873159
0.87476
0.873151
0.871909
0.872332
0.873852
0.873311
0.875287
0.874241
0.876159
0.874199
0.873117
0.87415
0.874393
0.873941
0.874549
0.876039
0.874122
0.873843
0.874641
0.875338
0.875991
0.874076
0.873682
0.874102
0.873545
0.87372
0.873601
0.874016
0.873769
0.873458
0.874419
0.87418
0.875515
0.875885
0.874288
0.873777
0.873682
0.87392
0.874491
0.874154
0.874062
0.875661
0.874935
0.875459
0.872319
0.875157
0.873963
0.875517
0.873581
0.873798
0.874092
0.871933
0.873893
0.873555
0.875516
0.873556
0.876249
0.873555
0.870908
0.873536
0.873019
0.870719
0.866789
0.873981
0.873614
0.877854
0.872764
0.872301
0.874633
0.871037
0.873398
0.873268
0.876326
0.873109
0.867857
0.869369
0.8732
0.882686
0.878676
0.875641
0.876602
0.867112
0.869315
0.872146
0.870248
0.874744
0.870922
0.866042
0.872179
0.871095
0.879083
0.871091
0.866637
0.870004
0.8729
0.87365
0.87185
0.874601
0.87316
0.875298
0.87323
0.874343
0.873032
0.872437
0.874209
0.873481
0.874241
0.876393
0.874241
0.874414
0.873204
0.874251
0.874448
0.873971
0.875685
0.874552
0.874797
0.873915
0.875104
0.875812
0.875378
0.875413
0.8741
0.874337
0.874099
0.874322
0.874132
0.874342
0.874663
0.873652
0.875498
0.875515
0.875868
0.875515
0.875285
0.873966
0.874313
0.874676
0.874844
0.874825
0.874271
0.874934
0.876674
0.874934
0.872331
0.873963
0.876118
0.873963
0.873916
0.873909
0.873885
0.871251
0.873414
0.874797
0.873556
0.876365
0.873556
0.874299
0.871446
0.87255
0.875378
0.871319
0.867345
0.873611
0.878663
0.873614
0.873285
0.872354
0.873524
0.871072
0.873267
0.875125
0.873268
0.874181
0.867895
0.869574
0.871628
0.87987
0.877888
0.875558
0.876575
0.867093
0.868826
0.870899
0.87207
0.870922
0.871857
0.86572
0.871092
0.878008
0.871094
0.872908
0.865582
0.870523
0.875334
0.872901
0.872475
0.873159
0.875642
0.873236
0.874822
0.87323
0.871948
0.872757
0.874154
0.873553
0.875128
0.874241
0.876278
0.87424
0.873214
0.874259
0.874438
0.873991
0.874551
0.876
0.874322
0.873915
0.874742
0.875378
0.875976
0.87435
0.874013
0.874095
0.874007
0.874712
0.874072
0.874774
0.874014
0.873851
0.874759
0.874879
0.875515
0.875933
0.874323
0.873971
0.873976
0.874224
0.874599
0.87427
0.874193
0.875637
0.874938
0.8755
0.872407
0.874967
0.873964
0.875364
0.87316
0.873885
0.874113
0.87095
0.873431
0.873555
0.87561
0.873556
0.875828
0.873554
0.871257
0.872994
0.873024
0.870985
0.866621
0.874135
0.873614
0.878216
0.872054
0.872298
0.874582
0.871102
0.873452
0.873268
0.876169
0.873266
0.867937
0.869697
0.874823
0.882594
0.876789
0.875567
0.87646
0.866932
0.869307
0.872476
0.869732
0.873741
0.870918
0.865795
0.87297
0.871094
0.879092
0.871091
0.865625
0.870486
0.872903
0.873876
0.871721
0.875021
0.873237
0.875318
0.873236
0.873723
0.871834
0.87311
0.874132
0.873052
0.874241
0.876492
0.874241
0.874388
0.873302
0.874337
0.874483
0.874013
0.875658
0.874553
0.8748
0.873966
0.875118
0.875812
0.875447
0.875444
0.87431
0.874431
0.874424
0.87492
0.874542
0.874991
0.874774
0.874017
0.875575
0.875515
0.875889
0.875515
0.875172
0.874209
0.874304
0.874849
0.87486
0.874813
0.874377
0.874938
0.876641
0.874938
0.872422
0.873963
0.876134
0.873964
0.873189
0.874244
0.873885
0.87093
0.872815
0.874719
0.873556
0.876131
0.873556
0.874218
0.871347
0.873024
0.875171
0.87024
0.867347
0.873289
0.878661
0.873614
0.872153
0.872506
0.873523
0.87153
0.872673
0.875472
0.873267
0.875273
0.868114
0.869444
0.87158
0.87987
0.87699
0.876246
0.876609
0.867093
0.869748
0.870898
0.87208
0.870918
0.871985
0.865737
0.871091
0.878053
0.871093
0.874105
0.86488
0.86975
0.875366
0.872903
0.871693
0.873236
0.875294
0.873236
0.874801
0.873235
0.871916
0.872028
0.874211
0.873049
0.875323
0.874242
0.875968
0.87424
0.873324
0.874366
0.874494
0.874033
0.874553
0.875961
0.874509
0.873965
0.874794
0.875447
0.875936
0.874566
0.874228
0.874658
0.87435
0.874716
0.874448
0.874772
0.874719
0.874164
0.875022
0.87525
0.875515
0.875905
0.874399
0.874217
0.874244
0.874429
0.874747
0.87438
0.874304
0.875613
0.87494
0.875656
0.872417
0.875092
0.873964
0.875597
0.873765
0.873885
0.874244
0.87095
0.872558
0.873555
0.875488
0.873556
0.876095
0.873554
0.871325
0.873186
0.873048
0.871252
0.866756
0.87389
0.873614
0.877661
0.871725
0.872887
0.874543
0.871725
0.873395
0.873268
0.87621
0.873265
0.868742
0.870277
0.87545
0.882667
0.876496
0.87662
0.876542
0.866982
0.869498
0.872226
0.869558
0.874374
0.870913
0.865798
0.872694
0.871093
0.878735
0.87109
0.865626
0.870141
0.872905
0.873911
0.87188
0.874598
0.873236
0.875207
0.873312
0.874276
0.871944
0.872059
0.874367
0.873481
0.874241
0.876508
0.874241
0.87435
0.873416
0.874453
0.874525
0.874072
0.875626
0.874554
0.874792
0.874027
0.875134
0.875796
0.875449
0.875485
0.874495
0.874814
0.874643
0.875011
0.874848
0.875111
0.87524
0.87441
0.875598
0.875515
0.875878
0.875515
0.875175
0.874454
0.874611
0.874933
0.874937
0.87489
0.874508
0.874939
0.876601
0.874939
0.872671
0.873964
0.876119
0.873964
0.872957
0.87414
0.873886
0.871938
0.873553
0.874646
0.873555
0.876135
0.873556
0.874421
0.871348
0.872224
0.875193
0.872253
0.867351
0.873613
0.878437
0.873614
0.872179
0.873481
0.873523
0.871349
0.873104
0.87474
0.873267
0.874851
0.868582
0.871706
0.871577
0.879871
0.876669
0.876666
0.875878
0.867391
0.869715
0.870901
0.872079
0.870914
0.871291
0.865739
0.871089
0.877871
0.871092
0.872714
0.865376
0.871244
0.875275
0.872905
0.871384
0.873235
0.875666
0.873316
0.875054
0.873312
0.87194
0.872953
0.874211
0.873079
0.875238
0.874242
0.875934
0.87424
0.873419
0.874449
0.87453
0.874083
0.874554
0.875908
0.874553
0.874024
0.87482
0.875449
0.875903
0.874714
0.874418
0.874626
0.874651
0.87523
0.874747
0.875296
0.87474
0.874537
0.87519
0.875465
0.875515
0.875905
0.87458
0.874426
0.874487
0.87454
0.874864
0.874515
0.87445
0.875588
0.874944
0.875498
0.872673
0.874941
0.873965
0.875376
0.872944
0.873886
0.874192
0.871969
0.8734
0.873822
0.875425
0.873556
0.876148
0.873554
0.87176
0.872458
0.873086
0.871571
0.866514
0.874056
0.873615
0.877842
0.871709
0.873346
0.874706
0.871272
0.872272
0.873268
0.876157
0.873266
0.867924
0.870663
0.875638
0.882195
0.876865
0.876968
0.876063
0.867878
0.869769
0.872428
0.869495
0.874201
0.870909
0.866151
0.872109
0.871091
0.878381
0.871089
0.865628
0.871324
0.872907
0.874269
0.871383
0.87498
0.873316
0.875126
0.873322
0.873694
0.872196
0.872744
0.874519
0.873083
0.874241
0.87648
0.874241
0.874337
0.873493
0.874514
0.874525
0.874112
0.875591
0.874554
0.874797
0.874047
0.875137
0.875783
0.87545
0.875469
0.874693
0.874841
0.874811
0.875342
0.875063
0.87542
0.875351
0.875011
0.875603
0.875515
0.875858
0.875515
0.875228
0.874831
0.874623
0.874887
0.875035
0.875026
0.874654
0.874945
0.876552
0.874943
0.872688
0.873964
0.875914
0.873965
0.873341
0.874005
0.873886
0.871935
0.872974
0.874612
0.873825
0.876151
0.873555
0.874302
0.871433
0.873009
0.875112
0.871723
0.867496
0.873613
0.878068
0.873614
0.872143
0.87207
0.873522
0.871293
0.873299
0.875475
0.873268
0.875187
0.867788
0.870405
0.871574
0.879872
0.878226
0.876863
0.876792
0.867846
0.869237
0.8709
0.872116
0.87091
0.871865
0.866137
0.871088
0.877885
0.871091
0.873418
0.865116
0.870334
0.875474
0.872907
0.871565
0.873316
0.875605
0.873325
0.874106
0.873321
0.872492
0.872444
0.874211
0.873727
0.875144
0.874242
0.875988
0.87424
0.873495
0.874489
0.87455
0.874121
0.874554
0.87587
0.874553
0.874044
0.874816
0.87545
0.875878
0.874868
0.874611
0.874999
0.874815
0.875231
0.874985
0.875306
0.875046
0.87495
0.875151
0.875574
0.875515
0.875898
0.874767
0.874651
0.874641
0.874645
0.874999
0.874622
0.87462
0.875568
0.87495
0.875733
0.873231
0.874853
0.873965
0.875616
0.873821
0.873886
0.874427
0.872027
0.873101
0.873824
0.875356
0.873826
0.876088
0.873553
0.871445
0.872997
0.873114
0.872289
0.866426
0.874094
0.873615
0.877313
0.872066
0.872583
0.874438
0.872259
0.873387
0.873299
0.876074
0.873267
0.867839
0.871064
0.875706
0.882343
0.876803
0.876454
0.876479
0.868086
0.869488
0.872145
0.869767
0.873883
0.870906
0.866132
0.872983
0.87109
0.878509
0.871088
0.865629
0.870817
0.872909
0.874119
0.871528
0.874479
0.873325
0.875249
0.873324
0.873635
0.872191
0.872804
0.87433
0.87348
0.874241
0.876328
0.874241
0.874329
0.873567
0.874543
0.874533
0.874133
0.875558
0.874554
0.874806
0.874094
0.875136
0.875783
0.87545
0.87547
0.874874
0.87511
0.874965
0.875388
0.875216
0.87545
0.875494
0.87545
0.875007
0.875515
0.87585
0.875515
0.87528
0.874956
0.874947
0.874948
0.875067
0.875042
0.874644
0.874954
0.876504
0.87495
0.872956
0.873965
0.876054
0.873965
0.873829
0.874267
0.873886
0.872432
0.873076
0.874444
0.873826
0.876015
0.873826
0.873767
0.871571
0.872916
0.875226
0.87163
0.867499
0.873611
0.877812
0.873614
0.873035
0.873646
0.87352
0.873489
0.873447
0.873789
0.873299
0.874292
0.867889
0.870674
0.871571
0.879872
0.876966
0.877517
0.875019
0.868561
0.870361
0.8709
0.872142
0.870906
0.871322
0.866525
0.871087
0.877383
0.87109
0.873257
0.866471
0.871435
0.875669
0.872925
0.871664
0.873324
0.875438
0.873325
0.875102
0.873323
0.872181
0.872894
0.874211
0.873289
0.875256
0.874242
0.87583
0.87424
0.873588
0.87454
0.874555
0.874142
0.874554
0.87583
0.874553
0.874091
0.87484
0.87545
0.875854
0.874959
0.874784
0.874986
0.874947
0.875512
0.875158
0.875563
0.875122
0.875149
0.874974
0.875641
0.875515
0.875904
0.874904
0.874776
0.874745
0.874743
0.875117
0.874692
0.874639
0.875541
0.874958
0.875627
0.872948
0.874932
0.873966
0.875373
0.873155
0.873886
0.874358
0.87244
0.87289
0.873825
0.875206
0.873826
0.87578
0.873824
0.871596
0.87293
0.873125
0.871769
0.866548
0.873874
0.873615
0.877604
0.872219
0.8732
0.874455
0.872666
0.873398
0.873299
0.875698
0.873267
0.868368
0.870708
0.875872
0.882325
0.877722
0.877469
0.875314
0.86815
0.869232
0.872362
0.869652
0.874069
0.870902
0.866764
0.872004
0.871089
0.878361
0.871087
0.866402
0.870506
0.87293
0.873867
0.87175
0.874775
0.873325
0.875056
0.873324
0.874001
0.872455
0.873146
0.874406
0.873297
0.874241
0.876426
0.874241
0.874301
0.873606
0.874555
0.87454
0.874178
0.875536
0.874554
0.874803
0.8741
0.875164
0.875781
0.87545
0.875453
0.875015
0.875123
0.87509
0.875586
0.87539
0.875607
0.875595
0.875575
0.875031
0.875515
0.875844
0.875515
0.875268
0.874661
0.874966
0.875098
0.875149
0.875055
0.874672
0.874963
0.876455
0.874957
0.873516
0.873965
0.876008
0.873966
0.8732
0.874281
0.873886
0.873477
0.873005
0.874422
0.873826
0.875899
0.873826
0.87423
0.871603
0.872998
0.875207
0.872147
0.867503
0.873613
0.877839
0.873614
0.872257
0.873117
0.873518
0.87115
0.8733
0.874452
0.873284
0.874567
0.868541
0.870842
0.871567
0.879873
0.878272
0.876232
0.875817
0.868186
0.869902
0.8709
0.872142
0.870903
0.871794
0.866551
0.871086
0.87751
0.871089
0.872853
0.866408
0.871563
0.875404
0.872947
0.872168
0.873324
0.875418
0.873325
0.874426
0.873324
0.872429
0.873139
0.874211
0.873532
0.875238
0.874242
0.875878
0.87424
0.873675
0.874541
0.874533
0.874182
0.874554
0.875809
0.874553
0.874114
0.874867
0.87545
0.87584
0.875071
0.874931
0.875233
0.875033
0.875531
0.875284
0.875578
0.875251
0.875191
0.875018
0.875676
0.875515
0.875915
0.87504
0.874655
0.874782
0.874797
0.875142
0.874791
0.874665
0.875587
0.874966
0.875595
0.872962
0.874784
0.873966
0.875538
0.873702
0.873886
0.874366
0.873458
0.873387
0.873825
0.87518
0.873826
0.875879
0.873563
0.871955
0.873069
0.87314
0.871365
0.866914
0.873377
0.873615
0.877363
0.872619
0.87312
0.874355
0.869844
0.873765
0.87341
0.875832
0.873282
0.868709
0.870735
0.875373
0.882074
0.87763
0.876461
0.875673
0.869
0.870342
0.872333
0.869613
0.873658
0.870899
0.866703
0.872218
0.871088
0.878087
0.871087
0.866459
0.872309
0.872952
0.873463
0.87204
0.874375
0.873325
0.87522
0.873325
0.87356
0.872395
0.872432
0.874479
0.873553
0.874242
0.876399
0.874242
0.874336
0.873716
0.87455
0.874551
0.874306
0.875532
0.874554
0.874799
0.874139
0.875186
0.875778
0.87545
0.875435
0.875142
0.875317
0.875165
0.875611
0.875477
0.87561
0.875615
0.875559
0.875065
0.875515
0.875826
0.875515
0.875339
0.87483
0.874647
0.875045
0.87515
0.875059
0.874712
0.874973
0.87644
0.874965
0.872967
0.873966
0.875941
0.873966
0.873114
0.874187
0.873886
0.872918
0.873823
0.874606
0.873826
0.875762
0.873826
0.873473
0.872508
0.87314
0.875133
0.871449
0.867672
0.873612
0.877966
0.873614
0.872859
0.872855
0.873517
0.870614
0.87341
0.873832
0.873414
0.873535
0.869204
0.870299
0.871564
0.879874
0.876257
0.876368
0.875853
0.868069
0.869485
0.870896
0.872142
0.8709
0.871406
0.866551
0.871086
0.877415
0.871089
0.872803
0.865915
0.870748
0.875552
0.872951
0.872233
0.873324
0.875417
0.873325
0.874949
0.873323
0.872706
0.872649
0.874211
0.873555
0.875151
0.874242
0.875823
0.87424
0.873952
0.874494
0.874551
0.874547
0.874554
0.875803
0.874554
0.874141
0.874881
0.87545
0.875834
0.875148
0.875066
0.87526
0.875097
0.875667
0.875386
0.875671
0.87533
0.875303
0.875053
0.875683
0.875515
0.875851
0.875126
0.874606
0.874603
0.874787
0.875174
0.874889
0.874713
0.875621
0.874974
0.875735
0.873367
0.874942
0.873967
0.875349
0.873097
0.873886
0.87439
0.87277
0.874053
0.873825
0.87515
0.873826
0.87559
0.873238
0.872695
0.873135
0.873158
0.871929
0.867127
0.873413
0.873615
0.877663
0.872853
0.873279
0.874115
0.869814
0.87371
0.873413
0.875632
0.873412
0.870152
0.8703
0.874919
0.882198
0.875687
0.87642
0.875385
0.868034
0.870066
0.872183
0.870183
0.873981
0.870896
0.867
0.872918
0.871088
0.878054
0.871086
0.865432
0.870277
0.872953
0.873031
0.872391
0.874571
0.873325
0.875114
0.873325
0.873745
0.872572
0.873409
0.87448
0.873947
0.874242
0.876214
0.874242
0.874426
0.873359
0.874551
0.874558
0.873832
0.875558
0.874554
0.874797
0.874365
0.87526
0.875827
0.87545
0.875402
0.875234
0.875375
0.875216
0.875612
0.875572
0.875612
0.875621
0.87557
0.875163
0.875515
0.87583
0.875515
0.875517
0.874733
0.874585
0.875069
0.87515
0.87504
0.874987
0.874982
0.876381
0.874974
0.872872
0.873966
0.875802
0.873967
0.873438
0.874149
0.873886
0.871931
0.872443
0.874213
0.873825
0.875052
0.873554
0.873585
0.871991
0.872515
0.875191
0.870866
0.868442
0.872516
0.877647
0.873614
0.873187
0.873149
0.873517
0.870614
0.873413
0.874496
0.873414
0.874076
0.87008
0.870686
0.871563
0.879874
0.875308
0.875462
0.874708
0.868639
0.869815
0.870894
0.872143
0.870896
0.871488
0.86735
0.871085
0.877318
0.871088
0.872471
0.865819
0.871163
0.875398
0.872953
0.872398
0.873324
0.875397
0.873325
0.874796
0.873324
0.872631
0.873948
0.874211
0.87357
0.8751
0.874242
0.876053
0.873886
0.873359
0.874559
0.874552
0.873838
0.874554
0.875655
0.874554
0.87454
0.875134
0.87545
0.875826
0.875238
0.875181
0.875432
0.87517
0.875669
0.875521
0.875702
0.875374
0.875362
0.875155
0.875682
0.875515
0.875852
0.875435
0.87467
0.874603
0.874784
0.875212
0.874913
0.874823
0.875376
0.874974
0.875636
0.872863
0.874843
0.873967
0.875558
0.873698
0.873886
0.87424
0.871747
0.872963
0.873676
0.874093
0.873555
0.87532
0.873552
0.871998
0.873171
0.87317
0.870965
0.868406
0.873395
0.873614
0.87757
0.873612
0.873131
0.874259
0.869296
0.873369
0.873414
0.875479
0.873412
0.870133
0.871139
0.874174
0.881971
0.874542
0.875732
0.874984
0.867532
0.869947
0.872548
0.870056
0.873805
0.870893
0.867707
0.87182
0.871088
0.877646
0.871086
0.865376
0.87129
0.872954
0.872978
0.872432
0.874808
0.873325
0.875199
0.873325
0.873656
0.872656
0.873252
0.874537
0.873577
0.874242
0.876304
0.874242
0.87434
0.87411
0.874552
0.874563
0.874553
0.875596
0.874554
0.874833
0.874055
0.87545
0.875821
0.87545
0.875431
0.875438
0.875586
0.875644
0.875612
0.875688
0.875612
0.875606
0.875597
0.875133
0.875515
0.875829
0.875515
0.875361
0.874818
0.874569
0.874937
0.875149
0.87509
0.874395
0.874973
0.87627
0.874965
0.87335
0.873967
0.875854
0.873967
0.873641
0.874301
0.873886
0.871722
0.87285
0.873713
0.873555
0.875735
0.873554
0.873287
0.872333
0.872434
0.875131
0.871525
0.868436
0.872855
0.877602
0.873614
0.873959
0.873458
0.873525
0.870614
0.872972
0.875006
0.873414
0.874296
0.870126
0.871084
0.871426
0.879875
0.875307
0.876691
0.874473
0.867542
0.870701
0.870888
0.872359
0.870893
0.871353
0.868199
0.871084
0.877534
0.871088
0.872334
0.865819
0.871099
0.875225
0.872959
0.872455
0.873324
0.875198
0.873325
0.874895
0.873324
0.87331
0.873139
0.874211
0.874095
0.875199
0.874242
0.875772
0.874241
0.873415
0.874242
0.874552
0.873928
0.874554
0.875784
0.874557
0.874056
0.875202
0.87545
0.875835
0.875168
0.875338
0.87545
0.875292
0.875689
0.875612
0.875702
0.875497
0.875478
0.87487
0.875663
0.875515
0.875878
0.874855
0.874711
0.874605
0.874866
0.875248
0.874979
0.874393
0.875584
0.874966
0.875614
0.872861
0.874792
0.873968
0.875356
0.87281
0.873886
0.874361
0.871845
0.872472
0.873554
0.875132
0.873555
0.875826
0.873027
0.873006
0.872553
0.87317
0.870786
0.868733
0.871365
0.873614
0.877183
0.87352
0.872105
0.874275
0.869702
0.872716
0.873414
0.875376
0.873412
0.868784
0.870505
0.87412
0.882069
0.874574
0.876697
0.873416
0.868004
0.870845
0.872748
0.870114
0.873211
0.870889
0.86896
0.873012
0.871086
0.877479
0.871085
0.865389
0.871117
0.872961
0.873024
0.872464
0.874072
0.873325
0.875048
0.873325
0.874022
0.872365
0.872498
0.874499
0.873516
0.874242
0.876245
0.874242
0.873993
0.873414
0.874323
0.874215
0.873884
0.87554
0.87456
0.874861
0.874548
0.874604
0.875796
0.87545
0.875173
0.875447
0.875492
0.874957
0.875612
0.875396
0.875612
0.875622
0.875612
0.874837
0.875515
0.875821
0.875515
0.875551
0.875108
0.874594
0.874895
0.875141
0.875049
0.874687
0.874963
0.876139
0.874958
0.872863
0.873967
0.875863
0.873967
0.872813
0.874231
0.873886
0.872311