/*--------------------------------*- C++ -*----------------------------------*\
| =========                 |                                                 |
| \\      /  F ield         | OpenFOAM: The Open Source CFD Toolbox           |
|  \\    /   O peration     | Version:  2312                                  |
|   \\  /    A nd           | Website:  www.openfoam.com                      |
|    \\/     M anipulation  |                                                 |
\*---------------------------------------------------------------------------*/
FoamFile
{
    version     2.0;
    format      ascii;
    arch        "LSB;label=32;scalar=64";
    class       volScalarField;
    location    "3";
    object      alpha.air;
}
// * * * * * * * * * * * * * * * * * * * * * * * * * * * * * * * * * * * * * //

dimensions      [0 0 0 0 0 0 0];

internalField   nonuniform List<scalar> 
50000
(
0.207298
0.202002
0.195868
0.187421
0.189066
0.204167
0.203082
0.20057
0.194516
0.191428
0.199047
0.205839
0.205359
0.206194
0.203819
0.205076
0.195456
0.192223
0.192852
0.198144
0.201298
0.203191
0.203786
0.202856
0.202656
0.201556
0.192994
0.193976
0.198444
0.201385
0.203815
0.204202
0.203787
0.197475
0.196139
0.196515
0.198887
0.202201
0.202574
0.209532
0.195666
0.198371
0.201734
0.202521
0.214363
0.212949
0.217804
0.219125
0.220942
0.22246
0.221356
0.222856
0.221391
0.216318
0.218073
0.202682
0.202692
0.209735
0.205532
0.206656
0.204614
0.205536
0.199596
0.201997
0.20394
0.202558
0.20414
0.196866
0.203837
0.20377
0.20222
0.199728
0.196301
0.19555
0.198347
0.203787
0.202917
0.202845
0.204562
0.203216
0.202833
0.197588
0.190718
0.194559
0.192782
0.202551
0.200457
0.204015
0.203073
0.204503
0.195027
0.192699
0.194891
0.204072
0.204493
0.20487
0.200712
0.201066
0.192071
0.193636
0.15852
0.156035
0.160272
0.156436
0.160722
0.161584
0.160718
0.163044
0.159357
0.160405
0.164518
0.160013
0.152523
0.148825
0.157296
0.164618
0.159721
0.159507
0.163415
0.163439
0.162148
0.159125
0.159667
0.16213
0.16126
0.164518
0.16277
0.161652
0.164236
0.163293
0.158356
0.158799
0.164796
0.164854
0.164235
0.164415
0.164816
0.16265
0.159885
0.170396
0.166047
0.168582
0.165375
0.164831
0.17505
0.176646
0.178491
0.179699
0.179576
0.180854
0.179953
0.181202
0.180574
0.17815
0.178178
0.167479
0.167489
0.173985
0.173226
0.173335
0.172354
0.171968
0.16836
0.167034
0.163145
0.159091
0.168233
0.163675
0.162165
0.159384
0.161831
0.164248
0.162198
0.161789
0.16364
0.162511
0.161789
0.161168
0.15888
0.15871
0.162573
0.163158
0.162325
0.159941
0.161665
0.16381
0.158162
0.155294
0.156474
0.16264
0.161886
0.158263
0.160672
0.160487
0.160166
0.160025
0.159023
0.160526
0.160282
0.159325
0.131506
0.12822
0.132758
0.123658
0.132995
0.132329
0.130069
0.132289
0.133354
0.129359
0.137332
0.131712
0.128904
0.12761
0.128905
0.136552
0.134304
0.127124
0.134125
0.131979
0.128859
0.127036
0.127348
0.129263
0.128757
0.133266
0.132068
0.12813
0.13199
0.129579
0.128377
0.126621
0.131168
0.132577
0.131396
0.131667
0.131952
0.12888
0.127109
0.13419
0.132988
0.133318
0.130583
0.130611
0.136565
0.136618
0.137197
0.138581
0.138476
0.138866
0.138527
0.13909
0.138271
0.137368
0.137364
0.132391
0.132189
0.135189
0.135882
0.135919
0.134866
0.133675
0.132856
0.131846
0.130652
0.127166
0.132488
0.131307
0.128818
0.128017
0.128581
0.132444
0.128614
0.128706
0.132954
0.130283
0.128916
0.128637
0.12679
0.126559
0.129503
0.132487
0.134086
0.126573
0.130443
0.134755
0.126793
0.126141
0.126387
0.13369
0.131416
0.126822
0.130125
0.13152
0.128347
0.131195
0.128813
0.131844
0.132378
0.12761
0.125278
0.125092
0.13116
0.122979
0.131197
0.132298
0.129758
0.132343
0.129084
0.128956
0.137251
0.132071
0.125257
0.128903
0.126644
0.136458
0.135231
0.125376
0.12845
0.131968
0.129499
0.126863
0.127289
0.129301
0.12875
0.133262
0.131882
0.128036
0.131989
0.130381
0.127905
0.126067
0.130985
0.132583
0.13165
0.131381
0.131957
0.129107
0.127065
0.134132
0.132675
0.133355
0.131041
0.13042
0.136022
0.136841
0.13732
0.138598
0.138312
0.13882
0.138658
0.139088
0.138248
0.137427
0.137217
0.132089
0.132433
0.135829
0.135877
0.135623
0.135622
0.135593
0.132604
0.131918
0.129887
0.126727
0.132485
0.131698
0.129028
0.127645
0.12903
0.132445
0.128467
0.128842
0.13295
0.130083
0.12897
0.128377
0.126446
0.126382
0.129879
0.132432
0.129546
0.127012
0.130803
0.134719
0.126348
0.126385
0.125556
0.133672
0.130498
0.126538
0.130968
0.131029
0.1277
0.128502
0.127835
0.132075
0.13238
0.12601
0.121057
0.121295
0.129944
0.123655
0.127784
0.130584
0.128167
0.12908
0.127522
0.129082
0.13618
0.129853
0.128902
0.122361
0.128903
0.134836
0.130109
0.12712
0.126626
0.12858
0.126519
0.126975
0.126104
0.126969
0.126534
0.129656
0.126933
0.125953
0.12847
0.125913
0.125479
0.125913
0.12588
0.12861
0.127319
0.127016
0.128119
0.125146
0.125468
0.129873
0.128009
0.128247
0.126624
0.126143
0.127945
0.128576
0.128612
0.132505
0.132333
0.132543
0.132851
0.132933
0.129305
0.128658
0.128646
0.127869
0.127148
0.127869
0.127796
0.130669
0.127312
0.126948
0.126688
0.126373
0.125109
0.12454
0.125349
0.128334
0.12604
0.125473
0.12604
0.128912
0.125682
0.126106
0.129424
0.126447
0.126071
0.126446
0.125116
0.126446
0.12614
0.129837
0.12701
0.12455
0.12877
0.133246
0.126385
0.122795
0.126385
0.131078
0.127203
0.126478
0.128651
0.12781
0.126311
0.127071
0.126431
0.13034
0.127899
0.127524
0.121284
0.121847
0.130716
0.122036
0.128502
0.130391
0.12908
0.128399
0.129079
0.127936
0.135754
0.130813
0.123693
0.128901
0.12635
0.135312
0.128527
0.12465
0.12712
0.128554
0.126975
0.124928
0.12696
0.126016
0.12697
0.129638
0.126584
0.125265
0.12847
0.126547
0.12589
0.124129
0.127353
0.128608
0.127015
0.127561
0.128117
0.125483
0.124493
0.129882
0.128316
0.128044
0.126452
0.12663
0.130171
0.130973
0.131337
0.132369
0.132538
0.132925
0.132275
0.132929
0.132059
0.131417
0.131234
0.127102
0.127986
0.129953
0.130206
0.130664
0.129857
0.129894
0.128258
0.127819
0.125548
0.125102
0.127948
0.128346
0.125565
0.126039
0.125535
0.128913
0.126109
0.125777
0.129409
0.127141
0.126446
0.125367
0.126445
0.124401
0.126865
0.130658
0.126318
0.127007
0.129303
0.13329
0.124853
0.126384
0.12346
0.131143
0.12764
0.12471
0.128826
0.128793
0.127072
0.125301
0.127072
0.130302
0.128212
0.125041
0.119704
0.122012
0.129825
0.123656
0.128519
0.12941
0.12756
0.129079
0.125822
0.129081
0.135926
0.12961
0.128902
0.12147
0.128902
0.134871
0.128051
0.127116
0.1249
0.127851
0.125937
0.126959
0.125167
0.12696
0.125958
0.127149
0.126323
0.125952
0.127485
0.125857
0.124571
0.12589
0.125626
0.127417
0.126051
0.126038
0.126913
0.12479
0.125462
0.127918
0.125902
0.125207
0.124559
0.124796
0.12575
0.126337
0.126337
0.12949
0.129607
0.129862
0.129376
0.130034
0.126549
0.126188
0.126133
0.125457
0.125809
0.125764
0.125818
0.129098
0.127231
0.126929
0.127404
0.125216
0.125102
0.123681
0.125103
0.127655
0.12604
0.124554
0.126039
0.127701
0.125472
0.12611
0.129701
0.126446
0.12557
0.126445
0.124036
0.126445
0.126015
0.129867
0.127005
0.123716
0.128649
0.133012
0.126385
0.122038
0.126385
0.129573
0.128007
0.126477
0.128504
0.128325
0.124993
0.127071
0.125262
0.128958
0.128326
0.127522
0.120132
0.123698
0.13063
0.12224
0.129454
0.129076
0.12908
0.12697
0.129077
0.12774
0.135755
0.128908
0.122177
0.128901
0.124844
0.135311
0.129661
0.123972
0.127115
0.128371
0.126959
0.124714
0.126959
0.125762
0.126909
0.128503
0.12851
0.125363
0.12749
0.125413
0.125849
0.123882
0.12637
0.127407
0.126142
0.126149
0.126905
0.125463
0.124205
0.127945
0.126718
0.12644
0.125238
0.124359
0.128041
0.128536
0.128729
0.129657
0.129468
0.129657
0.130024
0.130039
0.129538
0.129061
0.129054
0.125812
0.125359
0.127574
0.127745
0.129096
0.127382
0.127396
0.127074
0.126713
0.124541
0.125094
0.125962
0.127682
0.125048
0.126039
0.124991
0.127704
0.126113
0.125385
0.129276
0.126241
0.126446
0.124901
0.126444
0.124213
0.126445
0.130853
0.125105
0.127001
0.129423
0.133076
0.125389
0.126384
0.123073
0.129677
0.129553
0.124246
0.127939
0.128186
0.127064
0.124186
0.127071
0.127091
0.127687
0.124565
0.117902
0.123253
0.129783
0.123628
0.129363
0.12912
0.127501
0.129077
0.125341
0.129077
0.134714
0.128666
0.128902
0.12065
0.128902
0.134346
0.130764
0.127113
0.124906
0.129366
0.125677
0.126958
0.12494
0.126897
0.125788
0.12855
0.127913
0.125957
0.127115
0.125765
0.12411
0.125849
0.125562
0.127083
0.125802
0.125893
0.126411
0.124433
0.125458
0.126665
0.125918
0.124959
0.124316
0.124689
0.124954
0.125543
0.125542
0.128211
0.127567
0.128194
0.128001
0.128262
0.127459
0.127666
0.127652
0.124904
0.12466
0.124989
0.125245
0.127912
0.125821
0.12582
0.12696
0.125173
0.125095
0.123382
0.125095
0.127549
0.126039
0.124202
0.126039
0.127118
0.12554
0.126115
0.128914
0.126448
0.125183
0.126444
0.123845
0.126444
0.125943
0.129866
0.127
0.124296
0.128743
0.132574
0.126385
0.121384
0.126385
0.129092
0.129138
0.126476
0.128986
0.127915
0.124992
0.127062
0.124374
0.127843
0.127184
0.127329
0.120131
0.122
0.129492
0.123172
0.129856
0.130095
0.129078
0.127425
0.129075
0.127569
0.134644
0.129557
0.121711
0.128902
0.125284
0.134274
0.131049
0.123342
0.127112
0.128373
0.12696
0.124621
0.126888
0.125368
0.126897
0.128508
0.12703
0.125443
0.127127
0.125156
0.125759
0.123744
0.125945
0.127068
0.125972
0.125854
0.1264
0.125458
0.123944
0.126693
0.1264
0.125839
0.124689
0.124169
0.12693
0.127464
0.127489
0.127682
0.12835
0.128173
0.127485
0.128211
0.128201
0.127555
0.127785
0.124485
0.124924
0.126458
0.126755
0.127911
0.126772
0.126123
0.12661
0.126228
0.12433
0.125086
0.124957
0.127587
0.124976
0.126038
0.124837
0.127123
0.126123
0.125986
0.12839
0.125933
0.126445
0.12433
0.126444
0.123901
0.126445
0.13079
0.126153
0.126999
0.128344
0.13273
0.125498
0.126385
0.122254
0.128461
0.129122
0.125052
0.129454
0.127366
0.126999
0.123526
0.127063
0.130484
0.128037
0.124682
0.117858
0.122761
0.127844
0.123627
0.132593
0.12986
0.127745
0.129074
0.125107
0.129075
0.134284
0.128514
0.128903
0.120324
0.128904
0.134483
0.13097
0.127112
0.125733
0.128789
0.125611
0.126887
0.124902
0.126888
0.125751
0.128366
0.127189
0.126218
0.126847
0.125759
0.123874
0.125759
0.125499
0.126983
0.125718
0.125716
0.126177
0.124318
0.125453
0.12524
0.126262
0.124924
0.124265
0.124688
0.124669
0.126816
0.126576
0.126767
0.126846
0.127075
0.126784
0.126451
0.127228
0.126453
0.126853
0.124265
0.124485
0.124799
0.125353
0.126954
0.125609
0.125617
0.126481
0.125179
0.125086
0.123304
0.125086
0.127416
0.126038
0.124053
0.126038
0.126713
0.125612
0.126119
0.129167
0.126447
0.125059
0.126444
0.124004
0.126444
0.125623
0.129642
0.127
0.124212
0.128952
0.132692
0.126387
0.121091
0.126385
0.127457
0.129112
0.126476
0.129373
0.127
0.124988
0.126999
0.125341
0.130583
0.129063
0.127529
0.120131
0.123591
0.125348
0.123577
0.132672
0.130156
0.129075
0.127439
0.129074
0.127179
0.134544
0.128906
0.121615
0.128903
0.126294
0.134596
0.130905
0.124948
0.127112
0.128353
0.126887
0.124314
0.126887
0.125222
0.126889
0.128129
0.127832
0.125809
0.126869
0.124975
0.125759
0.123733
0.125827
0.126965
0.12591
0.125737
0.126164
0.125454
0.123969
0.126176
0.12626
0.125539
0.124688
0.123981
0.126306
0.126731
0.12681
0.127059
0.1265
0.127059
0.126536
0.127291
0.127158
0.126952
0.126514
0.124485
0.124154
0.125932
0.126345
0.126963
0.126425
0.125781
0.126168
0.126001
0.124318
0.125077
0.124597
0.127441
0.12496
0.126037
0.124696
0.126729
0.126386
0.125862
0.129171
0.126737
0.126445
0.124401
0.126444
0.124144
0.126445
0.129332
0.126628
0.126986
0.128598
0.132536
0.125678
0.126385
0.122383
0.127519
0.128637
0.124945
0.129454
0.12761
0.12689
0.123835
0.126999
0.130328
0.129046
0.125236
0.117394
0.122851
0.125278
0.123398
0.132928
0.131191
0.127835
0.129405
0.125308
0.129076
0.134097
0.127823
0.128903
0.120636
0.128907
0.134297
0.130988
0.127109
0.125952
0.128203
0.125259
0.126887
0.124664
0.126848
0.125908
0.128072
0.127182
0.12597
0.12668
0.125759
0.123724
0.125759
0.125497
0.126903
0.125778
0.125637
0.126075
0.124299
0.12545
0.125201
0.126159
0.124909
0.1242
0.124662
0.124627
0.126205
0.126275
0.126327
0.125911
0.126373
0.125749
0.125872
0.126741
0.12573
0.125671
0.12413
0.124485
0.1247
0.125529
0.126317
0.125519
0.125493
0.126047
0.125364
0.125074
0.123309
0.125078
0.127151
0.126038
0.123975
0.126037
0.126439
0.125908
0.12619
0.128774
0.126447
0.12502
0.126444
0.123719
0.126444
0.12572
0.129156
0.126988
0.124544
0.128868
0.132653
0.126389
0.121108
0.126386
0.126638
0.127691
0.126476
0.128962
0.126891
0.124533
0.12689
0.124646
0.13161
0.129321
0.12762
0.12013
0.121333
0.125301
0.123344
0.132854
0.130982
0.129085
0.127924
0.129075
0.127698
0.133933
0.128907
0.12176
0.128904
0.125162
0.134162
0.130621
0.124742
0.127108
0.128211
0.126887
0.124535
0.126841
0.12524
0.126849
0.128091
0.127668
0.126148
0.126689
0.124713
0.125759
0.123841
0.125801
0.126883
0.12585
0.125607
0.126059
0.125451
0.123961
0.125878
0.126157
0.125359
0.124662
0.124009
0.125924
0.126318
0.125898
0.126455
0.12628
0.126399
0.125984
0.126231
0.126542
0.125581
0.12582
0.124485
0.124115
0.125712
0.126223
0.126318
0.12608
0.125509
0.125846
0.125938
0.124339
0.125065
0.124541
0.127681
0.124843
0.126037
0.124483
0.126419
0.126202
0.125908
0.128067
0.126107
0.126445
0.124484
0.126444
0.123751
0.126445
0.129092
0.126464
0.126981
0.129281
0.133211
0.126019
0.126386
0.122146
0.127236
0.127699
0.125367
0.128963
0.126602
0.126732
0.123674
0.126891
0.132143
0.130631
0.1268
0.117314
0.121324
0.124359
0.123398
0.132888
0.130685
0.127854
0.129752
0.125256
0.129078
0.133958
0.127821
0.128905
0.120917
0.128909
0.133363
0.129996
0.1271
0.12635
0.12815
0.125399
0.12684
0.124702
0.12677
0.125657
0.126968
0.127563
0.125791
0.126519
0.125759
0.123607
0.125759
0.125586
0.126796
0.125749
0.125552
0.126029
0.124315
0.125448
0.125203
0.126085
0.124896
0.124188
0.124622
0.124587
0.1259
0.125663
0.125901
0.125678
0.125868
0.125658
0.125337
0.126348
0.124502
0.124485
0.124132
0.124485
0.124715
0.126034
0.125687
0.125324
0.125156
0.125175
0.125729
0.125066
0.123326
0.125066
0.127669
0.126037
0.123882
0.126037
0.126084
0.126091
0.126115
0.128749
0.126586
0.125203
0.126444
0.123635
0.126444
0.125701
0.128554
0.12745
0.124622
0.128681
0.132655
0.126389
0.121337
0.126386
0.126715
0.127646
0.126476
0.128928
0.126733
0.124875
0.126732
0.125819
0.132105
0.130426
0.128372
0.12013
0.122112
0.124442
0.123425
0.132907
0.131174
0.129101
0.12793
0.129078
0.128143
0.13428
0.128908
0.121992
0.128906
0.127092
0.134418
0.129477
0.124666
0.127099
0.127525
0.126841
0.124358
0.126764
0.125178
0.12677
0.128052
0.127243
0.125846
0.126447
0.124872
0.125759
0.123722
0.12576
0.126786
0.125741
0.125562
0.126009
0.125449
0.124
0.125678
0.126085
0.125258
0.124622
0.124024
0.12565
0.125987
0.125905
0.125993
0.125288
0.125928
0.125226
0.125986
0.126149
0.125241
0.125121
0.124485
0.124067
0.125677
0.126029
0.126024
0.125776
0.125401
0.12573
0.125807
0.124363
0.125062
0.1245
0.127593
0.125033
0.126036
0.124636
0.12684
0.126115
0.125887
0.12905
0.126569
0.126445
0.12439
0.126444
0.124172
0.126446
0.128743
0.127006
0.126976
0.129015
0.133379
0.125865
0.126386
0.121784
0.127946
0.127702
0.125418
0.128898
0.126548
0.126732
0.123831
0.126734
0.132063
0.130303
0.125177
0.117406
0.123211
0.124433
0.12354
0.133068
0.130693
0.127524
0.130268
0.126259
0.129082
0.134205
0.12703
0.128906
0.120908
0.128909
0.134375
0.129514
0.127097
0.126124
0.128279
0.124979
0.126763
0.124682
0.126764
0.126277
0.128166
0.12689
0.125868
0.126948
0.125759
0.123508
0.125759
0.125612
0.126698
0.125663
0.125517
0.125987
0.124342
0.125447
0.1252
0.126034
0.124882
0.124188
0.124553
0.124556
0.12569
0.125569
0.125576
0.12508
0.125458
0.125009
0.125226
0.125983
0.124425
0.124485
0.124111
0.124485
0.124828
0.125791
0.125696
0.125151
0.12514
0.125187
0.125623
0.125062
0.123359
0.125062
0.127578
0.126037
0.123866
0.126036
0.126811
0.125756
0.126115
0.12907
0.127185
0.125281
0.126444
0.123869
0.126444
0.125782
0.128653
0.126976
0.124829
0.12976
0.132653
0.126711
0.121339
0.126386
0.127847
0.127494
0.126477
0.12847
0.127327
0.124528
0.126733
0.124727
0.131886
0.130556
0.12842
0.12013
0.12301
0.123754
0.123391
0.132907
0.130252
0.129102
0.12792
0.129082
0.128015
0.134263
0.128909
0.121947
0.128907
0.125895
0.13512
0.13025
0.124634
0.127097
0.128307
0.126764
0.124706
0.126764
0.125199
0.126765
0.128084
0.127972
0.125789
0.126951
0.124677
0.125758
0.124032
0.12576
0.126676
0.125634
0.125506
0.125967
0.125447
0.124039
0.125491
0.126035
0.125206
0.124553
0.124064
0.125434
0.125772
0.125342
0.12565
0.125284
0.125552
0.125228
0.125281
0.125836
0.124978
0.12475
0.124485
0.124095
0.125601
0.125783
0.125756
0.125571
0.125253
0.12562
0.125696
0.124387
0.12506
0.124344
0.127583
0.124908
0.126036
0.124403
0.126235
0.126115
0.125756
0.12905
0.127442
0.126445
0.124512
0.126444
0.123905
0.126446
0.128675
0.126814
0.126952
0.128748
0.133244
0.12611
0.126386
0.122339
0.128275
0.127113
0.125457
0.128275
0.126605
0.126732
0.12379
0.126735
0.131258
0.129723
0.12455
0.117333
0.123504
0.12338
0.123458
0.133018
0.130502
0.127774
0.130442
0.125626
0.129087
0.134202
0.127306
0.128907
0.121265
0.12891
0.134374
0.129859
0.127095
0.126089
0.12812
0.125402
0.126764
0.124793
0.126688
0.125724
0.128056
0.127941
0.125633
0.126519
0.125759
0.123492
0.125759
0.12565
0.126584
0.125547
0.125475
0.125928
0.124374
0.125446
0.125208
0.125973
0.124866
0.124204
0.124551
0.124515
0.125505
0.125186
0.125357
0.124989
0.125152
0.124889
0.12476
0.12559
0.124402
0.124485
0.124122
0.124485
0.124825
0.125546
0.125389
0.125067
0.125063
0.12511
0.125492
0.125061
0.123399
0.125061
0.127329
0.126036
0.123881
0.126036
0.127043
0.12586
0.126114
0.128062
0.126447
0.125354
0.126445
0.123865
0.126444
0.125579
0.128652
0.127776
0.124807
0.127747
0.132649
0.126387
0.121563
0.126386
0.127821
0.126519
0.126477
0.128651
0.126896
0.12526
0.126733
0.125149
0.131418
0.128294
0.128423
0.120129
0.123331
0.123334
0.124122
0.132609
0.130285
0.129099
0.127921
0.129086
0.128709
0.134261
0.128911
0.122129
0.128908
0.127286
0.134624
0.128756
0.124725
0.127095
0.128616
0.126765
0.124334
0.126684
0.124946
0.126688
0.12806
0.127047
0.125789
0.126921
0.124762
0.125758
0.124066
0.12576
0.126581
0.125551
0.12547
0.125917
0.125446
0.124092
0.125447
0.125976
0.12518
0.124551
0.124097
0.125286
0.125582
0.125374
0.125349
0.12477
0.125253
0.124704
0.12526
0.125463
0.12481
0.124535
0.124485
0.124095
0.12542
0.125574
0.125513
0.12546
0.125136
0.125485
0.12555
0.124412
0.125056
0.124502
0.127327
0.125059
0.126035
0.124624
0.127056
0.126114
0.125808
0.128031
0.1266
0.126178
0.124575
0.126444
0.123852
0.126446
0.12824
0.127542
0.126914
0.128429
0.133486
0.125944
0.126385
0.122158
0.128291
0.126654
0.125294
0.128728
0.127728
0.126732
0.123843
0.126734
0.132076
0.129337
0.124362
0.117805
0.123135
0.123032
0.123937
0.132122
0.130231
0.127572
0.130505
0.125799
0.129091
0.133849
0.127891
0.128909
0.121619
0.128911
0.134372
0.128676
0.127093
0.125731
0.128617
0.12502
0.126684
0.124874
0.126678
0.126306
0.127804
0.127256
0.125481
0.126917
0.125759
0.12352
0.125759
0.125663
0.126507
0.125486
0.125475
0.125888
0.124409
0.125446
0.125203
0.125953
0.124863
0.124217
0.12455
0.124531
0.125307
0.125159
0.125189
0.124658
0.124937
0.12458
0.124649
0.124989
0.124397
0.124485
0.124142
0.124485
0.124772
0.125169
0.125377
0.125113
0.124965
0.124974
0.125346
0.125055
0.123448
0.125057
0.127312
0.126036
0.124086
0.126035
0.126659
0.125995
0.126114
0.128065
0.127026
0.125388
0.126175
0.123849
0.126445
0.125698
0.128567
0.126991
0.124888
0.128277
0.132504
0.126387
0.121932
0.126386
0.127857
0.12793
0.126478
0.128707
0.126701
0.124525
0.126732
0.124813
0.132212
0.129595
0.128426
0.120128
0.121774
0.123137
0.123208
0.132154
0.130763
0.1291
0.127884
0.12909
0.128135
0.133863
0.128912
0.122115
0.128909
0.126582
0.134884
0.129666
0.124526
0.127093
0.128435
0.126684
0.124395
0.126675
0.125894
0.126679
0.127508
0.127556
0.125789
0.126273
0.124856
0.125758
0.124012
0.12576
0.126505
0.125511
0.12545
0.125879
0.125446
0.12413
0.125447
0.125956
0.125184
0.12455
0.124122
0.125132
0.125389
0.125001
0.125185
0.124769
0.125015
0.124694
0.124954
0.12505
0.124849
0.124426
0.124485
0.124102
0.125233
0.125349
0.125359
0.125355
0.125001
0.125378
0.12538
0.124432
0.12505
0.124267
0.126769
0.125147
0.126035
0.124384
0.126179
0.126114
0.125573
0.127973
0.126899
0.126176
0.124644
0.126174
0.123912
0.126447
0.128555
0.127003
0.126886
0.127711
0.133574
0.125906
0.126385
0.122687
0.127934
0.127417
0.125562
0.127741
0.126613
0.126701
0.123926
0.126733
0.132161
0.128936
0.124294
0.117657
0.123197
0.123546
0.123521
0.131914
0.130512
0.127855
0.130233
0.126117
0.129094
0.133868
0.127017
0.12891
0.121491
0.128912
0.134371
0.129183
0.127091
0.125881
0.128472
0.125521
0.126675
0.124751
0.126676
0.126365
0.127809
0.127196
0.12567
0.12652
0.125759
0.123672
0.125759
0.125671
0.126433
0.125457
0.125467
0.125867
0.124442
0.125446
0.125194
0.125906
0.124864
0.124217
0.12455
0.12453
0.125126
0.12489
0.125035
0.124612
0.124784
0.12455
0.124506
0.12455
0.124993
0.124485
0.12415
0.124485
0.12472
0.125044
0.125053
0.125052
0.124933
0.124958
0.125356
0.125046
0.123496
0.12505
0.127044
0.126035
0.123946
0.126035
0.126171
0.125733
0.126114
0.127568
0.126924
0.125556
0.126174
0.123985
0.126174
0.126233
0.128429
0.127084
0.124774
0.12837
0.132501
0.126389
0.122188
0.126386
0.126965
0.126354
0.12648
0.126511
0.126553
0.126211
0.126701
0.125708
0.132111
0.129326
0.128429
0.120128
0.123034
0.122483
0.124981
0.131439
0.129639
0.1291
0.127858
0.129094
0.128678
0.133475
0.128913
0.122617
0.12891
0.126743
0.133529
0.128565
0.124331
0.127075
0.128336
0.126676
0.124562
0.126675
0.124898
0.126677
0.127819
0.127106
0.125789
0.126711
0.124744
0.125758
0.12417
0.12576
0.126412
0.12546
0.125445
0.125858
0.125446
0.12417
0.125447
0.125909
0.12516
0.12455
0.124146
0.125041
0.125216
0.125014
0.125053
0.124488
0.124842
0.124437
0.124878
0.124851
0.125026
0.124359
0.124485
0.124096
0.125096
0.125224
0.125255
0.125257
0.124883
0.125308
0.125361
0.124459
0.125042
0.124373
0.127052
0.125068
0.126034
0.124627
0.126845
0.126114
0.125642
0.12756
0.12711
0.126175
0.124794
0.126174
0.12422
0.126176
0.128404
0.12707
0.126875
0.128231
0.133452
0.126126
0.126385
0.122396
0.127781
0.1268
0.125545
0.127334
0.126602
0.126701
0.124302
0.126733
0.131632
0.129292
0.124128
0.117675
0.122278
0.122531
0.124686
0.13185
0.130768
0.127638
0.130348
0.125931
0.129098
0.133236
0.127996
0.128911
0.121639
0.128913
0.133598
0.129494
0.12707
0.126133
0.12825
0.125225
0.126675
0.124944
0.126676
0.125999
0.127545
0.126854
0.125594
0.126703
0.125759
0.123574
0.125759
0.125699
0.126394
0.125445
0.12546
0.125822
0.124464
0.125446
0.125197
0.1259
0.124836
0.124219
0.12455
0.124547
0.124985
0.124877
0.12491
0.124414
0.12461
0.124393
0.124405
0.124425
0.124969
0.124485
0.124156
0.124485
0.124732
0.125339
0.125034
0.124902
0.124851
0.124945
0.125328
0.125037
0.123545
0.125043
0.126484
0.126035
0.123992
0.126034
0.1268
0.125719
0.126114
0.126523
0.126995
0.125578
0.126174
0.124101
0.126174
0.12577
0.128397
0.127002
0.124793
0.127853
0.132497
0.126387
0.122161
0.126386
0.127743
0.126883
0.126482
0.12885
0.1267
0.125548
0.126716
0.125433
0.131459
0.129158
0.128433
0.120127
0.121728
0.123768
0.124183
0.131814
0.130098
0.1291
0.127858
0.129097
0.128206
0.133449
0.128914
0.12249
0.128911
0.127147
0.133592
0.128437
0.124596
0.127053
0.127832
0.126676
0.124582
0.126675
0.125574
0.126676
0.127571
0.126861
0.125789
0.126468
0.124762
0.125758
0.124122
0.12576
0.126325
0.125459
0.125467
0.125818
0.125446
0.124191
0.125447
0.125886
0.125133
0.12455
0.12416
0.124929
0.125069
0.124767
0.124967
0.124469
0.124716
0.124422
0.124749
0.124809
0.124982
0.124324
0.124485
0.124085
0.12496
0.125345
0.125218
0.125203
0.124858
0.125209
0.125335
0.124413
0.125034
0.124405
0.127038
0.125216
0.126034
0.124462
0.126298
0.126114
0.125634
0.126542
0.126613
0.126175
0.12482
0.126174
0.124121
0.126437
0.128045
0.126931
0.12686
0.128635
0.133086
0.126623
0.126385
0.122637
0.127381
0.12688
0.125645
0.130156
0.126235
0.12659
0.124168
0.126718
0.131291
0.129265
0.124627
0.117926
0.12237
0.123539
0.124327
0.131
0.129658
0.127667
0.130387
0.126342
0.129101
0.133297
0.127782
0.128912
0.121913
0.128913
0.133541
0.127691
0.127048
0.126537
0.12796
0.125625
0.126675
0.12478
0.126675
0.12644
0.127605
0.127568
0.125521
0.126447
0.125758
0.123601
0.125758
0.125664
0.126284
0.12545
0.125449
0.125694
0.124468
0.125446
0.125201
0.125861
0.124814
0.124222
0.12455
0.124565
0.124858
0.124683
0.124835
0.124389
0.124523
0.12439
0.124385
0.124441
0.124935
0.124485
0.124174
0.124485
0.124661
0.12517
0.125353
0.124955
0.12485
0.124941
0.125288
0.125027
0.12356
0.125035
0.127033
0.126034
0.124059
0.126034
0.126886
0.125813
0.126114
0.127082
0.126177
0.125394
0.126174
0.124238
0.126174
0.126527
0.127492
0.12686
0.124867
0.128551
0.132328
0.126388
0.122034
0.126386
0.127141
0.127145
0.126483
0.129386
0.12659
0.126168
0.126586
0.126465
0.130796
0.129701
0.128436
0.120126
0.123743
0.123632
0.124147
0.131931
0.130515
0.129104
0.127858
0.1291
0.128594
0.133449
0.128914
0.122585
0.128911
0.127197
0.134085
0.129252
0.124448
0.127049
0.127767
0.126676
0.124583
0.126675
0.125051
0.126677
0.127294
0.127351
0.125789
0.126445
0.124849
0.125758
0.124177
0.12576
0.126048
0.125506
0.125449
0.125453
0.125446
0.124197
0.125446
0.125859
0.125119
0.12455
0.124166
0.124852
0.124934
0.12474
0.124903
0.124333
0.124614
0.124329
0.12467
0.124697
0.124947
0.124317
0.124485
0.124149
0.124874
0.125394
0.125397
0.125213
0.124826
0.125111
0.125287
0.124379
0.125026
0.124265
0.126633
0.125058
0.126033
0.124651
0.126903
0.126114
0.12561
0.12723
0.125947
0.126175
0.12485
0.126174
0.12441
0.126762
0.127305
0.126865
0.126842
0.128071
0.132873
0.126587
0.126385
0.122337
0.127147
0.126721
0.125885
0.130186
0.12629
0.126587
0.124368
0.126588
0.129848
0.1297
0.125081
0.117802
0.124313
0.12358
0.124615
0.131966
0.129934
0.127817
0.129817
0.126019
0.129104
0.133
0.127082
0.128912
0.121946
0.128914
0.134568
0.129723
0.127047
0.126969
0.127609
0.125429
0.126675
0.124886
0.126675
0.126255
0.127428
0.126591
0.12552
0.126053
0.125758
0.123786
0.125758
0.125574
0.126641
0.125449
0.125442
0.126168
0.124442
0.125446
0.125203
0.125635
0.12474
0.124173
0.12455
0.124598
0.124766
0.124625
0.124784
0.124388
0.124428
0.124388
0.124379
0.12443
0.124837
0.124485
0.12417
0.124485
0.124483
0.125267
0.125415
0.124931
0.12485
0.12496
0.125013
0.125018
0.123619
0.125026
0.127128
0.126034
0.124198
0.126033
0.126562
0.125851
0.126114
0.128069
0.127557
0.125787
0.126175
0.124948
0.126446
0.126415
0.128009
0.127485
0.124809
0.129134
0.131558
0.127484
0.122353
0.126386
0.126813
0.126851
0.126483
0.129386
0.126587
0.125504
0.126586
0.125924
0.12992
0.129314
0.128437
0.120126
0.124692
0.124538
0.125292
0.131361
0.130185
0.129106
0.127857
0.129104
0.128512
0.13265
0.128915
0.122682
0.128912
0.127529
0.134181
0.128837
0.124602
0.127047
0.127602
0.126676
0.124603
0.126675
0.125204
0.126676
0.127369
0.126052
0.125789
0.12643
0.1249
0.125758
0.123947
0.126114
0.126641
0.125441
0.125448
0.126162
0.125446
0.124345
0.125446
0.12546
0.124866
0.12455
0.124174
0.124762
0.124819
0.124568
0.12483
0.124331
0.124479
0.124298
0.124626
0.124638
0.124845
0.124318
0.124485
0.124148
0.124565
0.12533
0.125397
0.125216
0.124788
0.125087
0.125177
0.124624
0.125026
0.124364
0.127137
0.125157
0.126033
0.124442
0.126302
0.126114
0.12576
0.128253
0.127037
0.126324
0.125907
0.126445
0.12468
0.126448
0.128002
0.126829
0.12683
0.129035
0.131594
0.126605
0.126386
0.12243
0.126388
0.126869
0.125741
0.130704
0.126631
0.126586
0.124521
0.126588
0.129867
0.128861
0.125826
0.118029
0.125458
0.124268
0.125016
0.132468
0.130053
0.127452
0.129944
0.126195
0.129107
0.132293
0.12818
0.128912
0.122354
0.128914
0.134624
0.12871
0.127046
0.127022
0.127568
0.125192
0.126675
0.124801
0.126675
0.126344
0.127344
0.126748
0.125463
0.126423
0.125758
0.123696
0.125758
0.12566
0.12589
0.125448
0.125437
0.125447
0.124404
0.125446
0.125167
0.125945
0.12455
0.124179
0.12455
0.124569
0.124562
0.124414
0.124356
0.124388
0.124312
0.124388
0.124394
0.124403
0.124867
0.124485
0.124171
0.124485
0.124639
0.125182
0.125431
0.125063
0.124851
0.12491
0.125605
0.125027
0.12373
0.125035
0.12665
0.126033
0.124146
0.126033
0.126359
0.125699
0.126114
0.128278
0.12715
0.126287
0.126445
0.124265
0.126446
0.126713
0.127667
0.127566
0.124869
0.128475
0.131564
0.127145
0.122398
0.126386
0.126041
0.126542
0.126475
0.129386
0.127028
0.124994
0.126586
0.125704
0.129874
0.128916
0.128574
0.120125
0.124693
0.123309
0.125527
0.132458
0.129299
0.129112
0.127641
0.129107
0.128647
0.131801
0.128916
0.122466
0.128912
0.127666
0.134181
0.128901
0.124775
0.127041
0.127545
0.126676
0.124802
0.126675
0.125105
0.126676
0.12669
0.126861
0.125789
0.125905
0.124801
0.125758
0.124228
0.125759
0.126585
0.125758
0.125448
0.126072
0.125446
0.124216
0.125443
0.125944
0.124798
0.12455
0.124165
0.124832
0.124662
0.12455
0.124708
0.124311
0.124388
0.124298
0.124503
0.124522
0.12513
0.124337
0.124485
0.124122
0.125145
0.125289
0.125395
0.125134
0.124752
0.125021
0.125607
0.124416
0.125034
0.124386
0.127139
0.125208
0.126032
0.124644
0.12719
0.126114
0.125639
0.128155
0.127528
0.126446
0.124868
0.126445
0.124174
0.126973
0.126994
0.127447
0.12683
0.129214
0.131267
0.128635
0.126386
0.122817
0.12648
0.127895
0.125725
0.130298
0.127284
0.126586
0.124624
0.126588
0.131216
0.129495
0.12588
0.117931
0.125426
0.123303
0.126584
0.131996
0.129155
0.127252
0.129886
0.126789
0.129111
0.13104
0.126988
0.128914
0.122521
0.128915
0.134611
0.128883
0.127039
0.126976
0.127536
0.125928
0.126675
0.124952
0.126675
0.125978
0.127635
0.127502
0.125501
0.126484
0.125758
0.123755
0.125758
0.126007
0.126586
0.125677
0.125785
0.126116
0.12446
0.12544
0.125139
0.125452
0.125396
0.124204
0.12455
0.124827
0.124553
0.124508
0.125043
0.124388
0.124604
0.124388
0.124378
0.124388
0.125163
0.124485
0.124179
0.124485
0.124449
0.124892
0.125406
0.125105
0.124859
0.124951
0.125313
0.125037
0.123861
0.125042
0.127137
0.126033
0.124137
0.126033
0.127187
0.125769
0.126114
0.127689