/*--------------------------------*- C++ -*----------------------------------*\
| =========                 |                                                 |
| \\      /  F ield         | OpenFOAM: The Open Source CFD Toolbox           |
|  \\    /   O peration     | Version:  2312                                  |
|   \\  /    A nd           | Website:  www.openfoam.com                      |
|    \\/     M anipulation  |                                                 |
\*---------------------------------------------------------------------------*/
FoamFile
{
    version     2.0;
    format      ascii;
    arch        "LSB;label=32;scalar=64";
    class       volScalarField;
    location    "3";
    object      p;
}
// * * * * * * * * * * * * * * * * * * * * * * * * * * * * * * * * * * * * * //

dimensions      [1 -1 -2 0 0 0 0];

internalField   nonuniform List<scalar> 
50000
(
96317.9
96318
96317.6
96317.9
96317.4
96317.2
96317.1
96316.8
96316.9
96317
96316.4
96316.4
96317.3
96317.6
96317.1
96316.2
96317.4
96317.8
96317.6
96317.4
96317.7
96317.6
96317.6
96317.1
96317.2
96316.9
96317.6
96318.1
96317.4
96318.1
96318.1
96318.3
96317.4
96317.6
96318
96318.2
96318
96318.5
96318.9
96317.6
96318.2
96318.3
96318.6
96318.7
96317.6
96317.5
96317.3
96316.9
96317
96316.7
96317
96316.8
96317.1
96317.3
96317.4
96318.4
96318.4
96317.7
96317.9
96317.5
96317.9
96317.6
96318
96317.8
96318.3
96318.7
96318.2
96318.1
96318
96318.2
96318.3
96317.7
96318.2
96318.2
96317.4
96317.4
96317.5
96317.9
96318.1
96318.2
96318
96318
96318.2
96318.3
96318.2
96317.4
96318.1
96318.1
96318.3
96317.7
96317.9
96318
96317.9
96317.7
96318
96317.9
96318.2
96318.1
96318.4
96318.4
96291.9
96291.6
96290.9
96291
96290.3
96290.8
96290.6
96290.2
96290
96290
96289.4
96290.2
96291.5
96291.8
96291.1
96289.9
96290.4
96291
96290.5
96290.6
96291.2
96291.6
96291.6
96291
96291
96290.3
96290.4
96291.3
96290.6
96291.6
96292.2
96292.5
96291.2
96290.7
96291
96291.2
96291.2
96292.2
96292.8
96291.8
96291.1
96291.6
96292.3
96292.5
96292
96291.5
96291.6
96291.2
96291.5
96291.3
96291.5
96291.3
96291.6
96291.5
96291.8
96292.2
96292.3
96291.7
96291.5
96291.3
96291.5
96291.4
96291.4
96291.5
96292.3
96292.7
96292.1
96291.1
96292
96292.3
96292
96291
96291.5
96291.2
96290.4
96291.3
96291.4
96291.8
96292.3
96292.2
96291.7
96291.1
96291.2
96291.7
96291.2
96290.9
96291.7
96292.2
96292.1
96291.4
96291.2
96291.3
96291.1
96291.4
96291.8
96291.8
96291.7
96291.6
96291.4
96291.7
96272.3
96272.3
96272
96272.7
96271.9
96271.8
96271.5
96272
96272
96271.7
96270.9
96270.5
96271.2
96271.2
96271.2
96270.9
96271.6
96272.9
96273.1
96272.7
96273
96272.6
96272.7
96272.6
96272.4
96272.2
96273
96273.5
96273
96273.6
96272.9
96273.3
96272.8
96273.4
96274
96274.2
96273.8
96273.9
96274
96273.3
96274.4
96274.6
96274.4
96274.6
96274.1
96274.1
96274.1
96273.8
96273.9
96273.7
96273.9
96273.7
96274
96274.1
96274.1
96274.6
96274.6
96274.2
96274.5
96273.9
96274.3
96274.1
96274.2
96273.9
96273.6
96273.8
96274.2
96273.7
96273.5
96273.3
96273.7
96273.2
96273.8
96273.7
96272.8
96272.6
96272.9
96273.2
96273.1
96273.1
96273.3
96273.2
96273.5
96273.6
96273
96272.2
96272.5
96272.5
96272.7
96272.4
96272.8
96272.9
96272.7
96272.1
96272.7
96272.7
96272.8
96272.8
96273
96273.4
96247.2
96247.1
96246.5
96246.7
96246.3
96245.4
96245.9
96246
96246.8
96246.1
96245.6
96245.4
96246.2
96246.6
96246
96245.1
96246.3
96246.8
96247
96246.4
96246.6
96247
96247
96246.5
96246.5
96245.6
96246.8
96247
96246.5
96247
96247.5
96247.7
96246.7
96246.6
96246.9
96247.1
96247
96247.6
96248.2
96247
96247.3
96247.4
96247.7
96247.9
96247.5
96247
96247.1
96246.6
96246.9
96246.7
96246.9
96246.7
96247
96247
96247.2
96247.6
96247.6
96247
96247
96247.1
96246.8
96246.2
96247.4
96247.3
96247.8
96248.1
96247.4
96247.3
96247.4
96247.7
96247.4
96246.9
96247.2
96247.1
96246.1
96246.7
96246.9
96247.4
96247.6
96247.5
96247
96246.9
96247.5
96247.5
96247
96245.9
96246.8
96247.3
96247.3
96246.8
96247
96247.2
96246.8
96246.9
96247.1
96247.3
96247.2
96246.8
96247.3
96247.5
96224.8
96224.6
96224.4
96224.8
96224.5
96224.8
96224.8
96224.7
96224.7
96224.4
96224.2
96223.6
96224
96224
96223.6
96223.9
96224.7
96225
96225.4
96225.5
96225.8
96225.4
96225.3
96225.4
96225.1
96225.4
96225.4
96226
96225.9
96226.5
96225.8
96226.1
96225.9
96226.4
96226.8
96227
96226.8
96226.9
96226.9
96226.9
96227.3
96227.7
96227.6
96227.8
96227.7
96227.8
96227.9
96227.7
96227.9
96227.6
96227.9
96227.7
96227.9
96227.9
96227.9
96227.9
96227.9
96227.9
96228
96227.2
96227.9
96227.8
96227
96226.9
96226.8
96226.6
96227.7
96226.4
96226.5
96226.2
96226.5
96226.3
96226.3
96226.3
96225.6
96225.7
96225.7
96226
96225.8
96225.8
96226.1
96225.8
96225.9
96225.6
96225.1
96225
96224.6
96225.1
96225.2
96225.5
96225.3
96225.4
96225.3
96225.2
96225.3
96225.5
96225.5
96225.7
96225.7
96225.7
96200.4
96200
96200
96200.4
96200.2
96200.3
96200.1
96200.1
96200.5
96200.4
96200.2
96199.8
96200.1
96200.1
96199.5
96199.4
96200.4
96200.9
96201
96200.4
96200.6
96200.8
96200.8
96200.5
96200.5
96199.8
96200.9
96201.2
96200.7
96201
96201.3
96201.5
96200.6
96201.1
96201.2
96201.4
96201.2
96201.6
96201.9
96200.8
96201.8
96201.7
96201.8
96201.9
96201.3
96201.1
96201.1
96200.8
96200.9
96200.8
96201
96200.8
96201
96201
96201.2
96201.7
96201.7
96201.2
96201.1
96201
96201.2
96200.6
96201.4
96201.4
96201.7
96201.9
96201.2
96201.5
96201.3
96201.6
96201.3
96201
96201.3
96201.4
96200.5
96200.5
96200.8
96201.3
96201.4
96201.3
96200.9
96200.8
96201.1
96201.3
96200.9
96200.1
96200.5
96200.9
96201
96200.8
96201
96201.2
96201.1
96200.9
96201.1
96201.2
96201.2
96201.1
96201.2
96201.1
96176.8
96176.7
96177
96177.2
96177.1
96177.2
96177.3
96177.5
96177.4
96177.4
96177
96177.1
96177
96176.8
96176.5
96176.7
96177.1
96177.6
96177.6
96177.6
96177.9
96177.8
96177.9
96178
96177.6
96177.9
96177.9
96178.4
96178.2
96178.7
96178.3
96178.5
96178.6
96178.8
96179
96179.2
96179.1
96179.3
96179.2
96179.8
96179.5
96180
96180
96180.2
96180.4
96180.4
96180.6
96180.5
96180.8
96180.5
96180.8
96180.5
96180.7
96180.6
96180.6
96180.3
96180.4
96180.3
96180.4
96179.9
96180.2
96180.1
96179.4
96179.4
96179.3
96179
96180.2
96178.8
96178.9
96178.7
96178.8
96178.8
96178.4
96178.2
96177.9
96178.4
96178
96178.4
96178.3
96178.3
96178.2
96177.9
96178.3
96178
96177.8
96177.5
96177.3
96177.6
96177.8
96178.1
96178
96178.1
96178
96178.1
96178.1
96178.1
96178
96178.1
96178.1
96178.1
96153
96152.8
96153
96153
96152.8
96153.1
96153
96153
96152.9
96152.8
96152.8
96153.1
96153
96152.8
96152.5
96152.7
96152.9
96152.9
96153.1
96153
96153.2
96153.2
96153.3
96153.2
96153.2
96152.9
96153.2
96153.7
96153.5
96153.9
96154
96154
96153.5
96154
96154.1
96154.3
96154.1
96154.4
96154.5
96153.8
96154.7
96154.6
96154.6
96154.7
96154.1
96154.1
96154
96153.9
96153.9
96153.8
96154
96153.8
96153.9
96153.9
96154
96154.6
96154.6
96154.2
96154.2
96153.7
96154.3
96154.1
96154.2
96154
96154.3
96154.5
96154
96154.2
96154.1
96154.2
96154.1
96153.8
96154.1
96154.1
96153.7
96153.4
96153.6
96153.7
96153.7
96153.7
96153.5
96153.8
96153.8
96153.5
96153.2
96153.2
96153.2
96153.5
96153.6
96153.7
96153.7
96153.8
96153.9
96153.9
96153.9
96153.9
96153.9
96154
96154
96154.2
96129
96128.9
96129
96128.8
96128.8
96129.3
96129.4
96129.4
96129.3
96129.3
96129.2
96129.7
96129.3
96129.2
96128.8
96129
96128.9
96129.3
96129.3
96129.4
96129.4
96129.5
96129.6
96129.6
96129.6
96129.8
96129.7
96130
96130
96130.4
96130.2
96130.4
96130.4
96130.5
96130.6
96130.9
96130.8
96131
96130.9
96131.7
96131.2
96131.6
96131.7
96131.8
96132.1
96132.1
96132.4
96132.3
96132.7
96132.4
96132.7
96132.5
96132.5
96132.3
96132.4
96131.9
96132
96131.9
96132
96131.9
96131.7
96131.5
96131.2
96131.1
96131.2
96130.8
96131.7
96130.5
96130.7
96130.5
96130.5
96130.5
96130.2
96130.3
96129.8
96130.2
96129.9
96130.1
96130
96130
96129.8
96129.8
96129.5
96129.8
96129.8
96129.6
96129.4
96129.7
96129.8
96129.9
96129.9
96130
96129.8
96130.1
96129.8
96129.9
96129.7
96129.7
96129.8
96129.6
96104.6
96104.5
96104.6
96104.5
96104.6
96104.5
96104.6
96104.6
96104.6
96104.7
96105.1
96104.9
96105
96105
96104.5
96104.6
96104.5
96105.1
96104.8
96104.7
96104.9
96105.1
96105.2
96104.9
96104.9
96105.2
96105.3
96105.8
96105.3
96105.7
96105.6
96105.7
96105.3
96105.8
96105.9
96106.1
96105.9
96106.1
96106.2
96105.7
96106.4
96106.3
96106.4
96106.4
96105.9
96106
96105.8
96105.9
96105.9
96105.7
96105.9
96105.8
96105.8
96105.9
96105.9
96106.3
96106.4
96106.1
96106.1
96105.5
96106.1
96106.1
96106
96105.8
96106
96106.1
96105.9
96105.9
96105.9
96105.9
96105.8
96105.6
96105.8
96105.6
96105.5
96105.3
96105.4
96105.7
96105.6
96105.5
96105.2
96104.8
96105.4
96105.5
96105.7
96105.2
96105.1
96105.5
96105.6
96105.7
96105.8
96105.8
96105.7
96105.8
96105.5
96105.5
96105.3
96105.3
96105.4
96105.5
96080.1
96080
96080.1
96080
96080
96080.2
96080.5
96080.2
96080.4
96080.2
96080.4
96081
96080.6
96080.6
96080.2
96080.4
96080.2
96080.2
96080.3
96080.2
96080.4
96080.4
96080.5
96080.7
96080.8
96080.8
96080.8
96080.9
96081
96081.4
96081.2
96081.3
96081.5
96081.5
96081.6
96081.8
96081.8
96081.9
96081.9
96082.6
96082.2
96082.5
96082.5
96082.6
96083.1
96083
96083.2
96083.2
96083.6
96083.4
96083.6
96083.5
96083.4
96083.2
96083.3
96082.7
96082.8
96082.8
96082.7
96082.9
96082.5
96082.3
96082.3
96082
96082.2
96081.8
96082.4
96081.5
96081.7
96081.5
96081.5
96081.4
96081.5
96081.2
96081.3
96081.3
96081.1
96081
96080.9
96080.8
96080.8
96080.8
96081.1
96081
96080.6
96080.8
96080.9
96081
96081.1
96081.3
96081
96081.1
96081.2
96081.5
96081.1
96081
96080.8
96080.9
96080.9
96081.1
96055.5
96055.5
96055.5
96055.1
96055.4
96055.6
96055.8
96055.5
96055.3
96055.3
96055.4
96056.1
96055.5
96055.7
96055.6
96055.7
96055.5
96055.5
96055.6
96055.5
96055.7
96055.7
96055.8
96055.9
96055.7
96056
96055.8
96056.2
96056
96056.4
96056.3
96056.4
96056
96056.6
96056.6
96056.8
96056.7
96056.8
96056.8
96056.5
96057.1
96057.1
96057.1
96057.1
96056.7
96056.9
96056.8
96056.8
96056.8
96056.7
96056.8
96056.7
96056.8
96056.9
96056.9
96057.1
96057.2
96056.8
96057
96056.5
96056.9
96056.9
96056.8
96056.5
96056.7
96056.7
96056.7
96056.5
96056.7
96056.6
96056.6
96056.3
96056.3
96056.6
96056.1
96056.3
96056.2
96056.3
96056.2
96056.1
96055.9
96056.1
96056
96056.1
96056.1
96056.4
96056.1
96056.2
96056.3
96056.2
96056.3
96056.3
96056.1
96056.2
96056.3
96056.2
96056
96056.1
96056
96055.9
96030.6
96030.6
96030.6
96030.5
96030.3
96030.3
96030.4
96030.5
96030.6
96030.6
96030.7
96031.2
96030.8
96030.9
96030.8
96030.5
96030.5
96030.7
96030.6
96030.6
96030.7
96030.9
96030.9
96031
96031
96031
96031
96031.5
96031.1
96031.5
96031.3
96031.5
96031.7
96031.6
96031.7
96031.9
96031.9
96032
96032
96032.6
96032.2
96032.5
96032.5
96032.6
96033.1
96033
96033.2
96033.3
96033.6
96033.5
96033.6
96033.6
96033.5
96033.2
96033.4
96032.7
96032.8
96032.8
96032.7
96032.8
96032.6
96032.3
96032.5
96032.2
96032.3
96031.9
96032.3
96031.7
96031.8
96031.6
96031.6
96031.5
96031.5
96031.3
96031.3
96031.4
96031.3
96031.5
96031.3
96031.2
96031
96031.2
96031.3
96031.2
96031.3
96031.2
96031.4
96031.3
96031.4
96031.3
96031.5
96031.4
96031.4
96031.5
96031.4
96031.4
96031.3
96031.3
96031.3
96031.2
96005.4
96005.3
96005.2
96005.3
96005.2
96005.1
96005.3
96005
96005.3
96005.2
96005.4
96005.7
96005.7
96005.8
96005.7
96005.4
96005.5
96005.5
96005.3
96005.3
96005.4
96005.4
96005.6
96005.7
96005.7
96006
96005.9
96005.8
96005.8
96006.2
96006
96006.2
96005.9
96006.3
96006.3
96006.5
96006.4
96006.6
96006.6
96006.4
96006.8
96006.8
96006.9
96006.9
96006.5
96006.8
96006.7
96006.7
96006.7
96006.6
96006.8
96006.6
96006.7
96006.8
96006.8
96006.9
96007
96006.6
96006.8
96006.5
96006.7
96006.7
96006.6
96006.3
96006.4
96006.4
96006.5
96006.4
96006.5
96006.3
96006.4
96006.1
96006.4
96006.1
96006.1
96005.9
96006
96005.9
96005.8
96005.9
96005.9
96005.9
96006
96006.1
96005.8
96005.9
96006.2
96006.1
96005.9
96006
96006
96005.9
96006.2
96006.1
96006
96006
96005.9
96005.7
96005.8
96005.9
95979.9
95979.9
95980
95979.9
95980.1
95980.1
95980
95979.7
95979.8
95979.6
95979.8
95980.1
95980
95980.1
95980.1
95980.3
95980
95980
95980.1
95979.9
95980
95980.3
95980.3
95980.4
95980.3
95980.6
95980.2
95980.5
95980.4
95980.8
95980.6
95980.8
95980.8
95980.9
95980.9
95981.1
95981.1
95981.2
95981.2
95981.8
95981.4
95981.7
95981.7
95981.7
95982.2
95982.2
95982.3
95982.4
95982.6
95982.6
95982.7
95982.6
95982.6
95982.3
95982.5
95981.8
95981.9
95981.9
95981.8
95981.9
95981.8
95981.5
95981.7
95981.4
95981.5
95981.1
95981.3
95980.7
95981.3
95980.8
95981.1
95980.7
95980.6
95980.9
95980.6
95980.6
95980.6
95980.6
95980.5
95980.5
95980.4
95980.4
95980.4
95980.3
95980.5
95980.7
95981
95980.7
95980.8
95980.6
95980.7
95980.6
95980.4
95980.6
95980.5
95980.6
95980.8
95980.5
95980.4
95980.4
95954.3
95954.2
95954.2
95954.1
95954
95954.1
95953.9
95954.2
95954
95954.3
95954.2
95954.5
95954.4
95954.6
95954.6
95954.4
95954.3
95954.1
95954.2
95954.4
95954.5
95954.4
95954.3
95954.4
95954.5
95954.4
95954.5
95955
95954.6
95954.8
95954.8
95954.8
95954.8
95955.1
95955.1
95955.3
95955.2
95955.3
95955.4
95955.2
95955.6
95955.6
95955.7
95955.6
95955.4
95955.6
95955.6
95955.6
95955.7
95955.5
95955.7
95955.5
95955.6
95955.7
95955.6
95955.6
95955.8
95955.3
95955.7
95955.4
95955.5
95955.5
95955.4
95955.1
95955.2
95955.2
95955.3
95955.1
95955.1
95955.1
95955
95955.1
95955
95954.7
95954.9
95954.9
95954.8
95954.9
95954.9
95954.8
95954.5
95954.7
95954.5
95954.6
95954.9
95954.7
95955.4
95954.9
95955.2
95954.8
95954.8
95955
95954.9
95955
95955
95955
95955.1
95955
95954.9
95954.9
95928.1
95928.1
95928.1
95928.2
95928.2
95928.3
95928.3
95928.3
95928.2
95928.5
95928.2
95928.2
95928.5
95928.5
95928.8
95928.2
95928.3
95928.2
95928.3
95928.3
95928.4
95928.2
95928.5
95928.6
95928.6
95928.4
95928.8
95928.6
95928.9
95928.9
95928.8
95929.1
95929.1
95929.2
95929.2
95929.3
95929.3
95929.5
95929.5
95930
95929.7
95929.9
95929.9
95929.9
95930.4
95930.4
95930.5
95930.6
95930.7
95930.8
95930.8
95930.7
95930.8
95930.5
95930.6
95930
95930.1
95930.1
95930
95930
95930
95929.8
95929.9
95929.6
95929.7
95929.4
95929.5
95929.4
95929.4
95929.2
95929.2
95928.8
95929.3
95929
95928.8
95929
95928.9
95929
95928.8
95928.9
95928.9
95928.8
95928.7
95928.9
95928.7
95928.9
95929
95928.8
95928.7
95928.8
95928.8
95928.8
95929
95928.8
95929
95929
95929.1
95929.1
95929
95929.1
95902.2
95902.1
95902.2
95902.3
95902.2
95902.3
95902.3
95902.1
95902.2
95901.9
95902
95901.9
95902.2
95902
95902.5
95902.1
95901.9
95902.2
95902.3
95902
95901.9
95902.2
95902.4
95902.6
95902.4
95902.6
95902.3
95902.6
95902.3
95902.8
95902.6
95902.9
95902.6
95902.9
95902.9
95903.1
95903
95903.1
95903.2
95903
95903.4
95903.4
95903.5
95903.4
95903.2
95903.5
95903.5
95903.5
95903.6
95903.4
95903.6
95903.4
95903.5
95903.5
95903.5
95903.5
95903.6
95903.2
95903.5
95903.3
95903.4
95903.2
95903.2
95903
95903.1
95903
95903.2
95902.7
95903.3
95902.7
95903.1
95902.7
95902.7
95902.9
95902.8
95902.8
95902.8
95902.8
95902.6
95902.6
95902.6
95902.5
95902.6
95902.3
95902.8
95902.8
95903
95902.7
95902.7
95902.4
95902.7
95902.6
95902.8
95902.8
95902.6
95902.9
95902.9
95902.8
95902.8
95902.7
95875.8
95875.9
95875.8
95875.7
95875.6
95875.6
95875.4
95875.7
95875.8
95875.6
95875.6
95875.5
95875.6
95875.8
95875.7
95875.7
95875.7
95875.6
95875.6
95875.9
95875.9
95875.9
95875.7
95876
95876
95876.2
95875.9
95876.3
95876
95876.1
95876.3
95876.2
95876.4
95876.5
95876.5
95876.6
95876.6
95876.8
95876.8
95877.2
95877
95877.2
95877.1
95877.2
95877.6
95877.7
95877.7
95877.8
95877.9
95878
95878
95877.9
95878
95877.7
95877.8
95877.2
95877.3
95877.4
95877.3
95877.2
95877.3
95877.1
95877.2
95876.9
95877
95876.7
95876.9
95876.5
95876.5
95876.4
95876.4
95876.5
95876.4
95876.1
95876.4
95876.5
95876.4
95876.3
95876.2
95876.2
95876.1
95876.1
95875.9
95876
95876.5
95875.8
95876.5
95876.3
95876.4
95876.3
95876.3
95876.3
95876.3
95876.4
95876.2
95876.1
95876.2
95876.1
95876.3
95876.3
95848.9
95848.9
95848.9
95848.9
95848.9
95848.9
95849
95849
95848.9
95849.1
95848.8
95848.6
95849
95849
95849.1
95848.8
95849.1
95848.9
95849
95849
95849.2
95849.2
95849.1
95849.4
95849.1
95849.2
95849.3
95849.2
95849.6
95849.5
95849.3
95849.6
95849.5
95849.8
95849.7
95849.9
95849.9
95850
95850
95849.9
95850.2
95850.1
95850.3
95850.3
95850.1
95850.3
95850.3
95850.4
95850.5
95850.3
95850.5
95850.3
95850.4
95850.3
95850.4
95850.3
95850.4
95850.1
95850.4
95850.2
95850.2
95850
95850
95849.9
95849.9
95849.9
95849.8
95850
95850
95849.9
95849.8
95849.4
95849.9
95849.5
95849.6
95849.7
95849.7
95849.6
95849.5
95849.5
95849.4
95849.5
95849.3
95849.5
95849.1
95849.3
95849.2
95849.2
95849.4
95849.5
95849.5
95849.4
95849.7
95849.4
95849.6
95849.5
95849.5
95849.5
95849.4
95849.6
95822.1
95822.1
95822.2
95822.2
95822.2
95822.1
95822.2
95822.2
95822.1
95822
95822
95821.9
95822.1
95821.9
95822.4
95822
95822.1
95822.1
95822.1
95822.1
95822.1
95822.1
95822.2
95822.4
95822.3
95822.5
95822.3
95822.5
95822.2
95822.7
95822.6
95822.9
95822.7
95822.8
95822.8
95822.9
95822.9
95823.1
95823.1
95823.4
95823.3
95823.5
95823.4
95823.5
95823.8
95824
95824
95824
95824.1
95824.1
95824.2
95824.1
95824.2
95823.9
95824.1
95823.5
95823.6
95823.6
95823.6
95823.5
95823.6
95823.4
95823.5
95823.2
95823.3
95823
95823.1
95822.7
95823.3
95822.6
95822.8
95822.6
95822.6
95822.6
95822.8
95822.4
95822.9
95822.7
95822.6
95822.6
95822.6
95822.5
95822.5
95822.3
95822.5
95822.8
95822.5
95822.5
95822.4
95822.2
95822.3
95822.4
95822.6
95822.6
95822.5
95822.5
95822.4
95822.5
95822.6
95822.6
95795.1
95795.1
95795
95795.1
95795
95794.7
95794.7
95795.1
95794.9
95794.9
95794.9
95794.7
95794.6
95794.8
95794.7
95794.9
95794.8
95794.9
95794.9
95794.9
95794.9
95795
95795
95795.1
95795.2
95795.4
95795
95795.5
95795.2
95795.3
95795.5
95795.3
95795.4
95795.6
95795.6
95795.7
95795.7
95795.8
95795.8
95795.8
95796
95795.9
95796.1
95796.1
95796
95796.2
95796.2
95796.2
95796.4
95796.2
95796.4
95796.2
95796.3
95796.1
95796.2
95796.1
95796.2
95795.9
95796.2
95796
95796
95795.9
95795.9
95795.7
95795.8
95795.7
95796
95795.6
95795.6
95795.5
95795.7
95795.4
95795.6
95795.4
95795.5
95795.4
95795.3
95795.5
95795.4
95795.4
95795.4
95795.2
95795.3
95795.2
95795.7
95795.2
95795.4
95795.3
95795.4
95795.2
95795.4
95795.3
95795.4
95795.3
95795
95795.2
95794.9
95795.1
95795.5
95795.3
95767.5
95767.5
95767.5
95767.6
95767.5
95767.5
95767.4
95767.3
95767.3
95767.3
95767.2
95767.2
95767.2
95767.4
95767.3
95767.1
95767.5
95767.3
95767.4
95767.5
95767.6
95767.7
95767.5
95767.9
95767.6
95767.6
95767.6
95767.6
95767.8
95767.9
95767.7
95768
95768
95768.2
95768.2
95768.3
95768.3
95768.4
95768.4
95768.7
95768.6
95768.8
95768.7
95768.8
95769.1
95769.2
95769.3
95769.3
95769.3
95769.3
95769.4
95769.3
95769.4
95769.1
95769.3
95768.8
95768.9
95768.9
95768.9
95768.8
95768.9
95768.7
95768.8
95768.5
95768.6
95768.3
95768.2
95768.4
95768.4
95768.1
95768.4
95768
95768.1
95768.2
95768
95768.1
95768.1
95767.8
95768
95767.9
95767.6
95767.9
95767.8
95767.9
95767.5
95767.6
95767.5
95767.6
95768
95767.9
95768.2
95767.9
95767.9
95767.8
95767.6
95767.9
95767.7
95767.8
95767.6
95767.8
95739.8
95739.7
95739.9
95739.6
95739.8
95739.9
95739.8
95739.7
95739.8
95739.6
95739.6
95739.5
95739.6
95739.5
95739.8
95739.7
95739.8
95739.7
95739.8
95739.9
95739.7
95739.7
95739.9
95740.2
95739.9
95740
95740
95740.2
95740.1
95740.2
95740.2
95740.4
95740.3
95740.4
95740.4
95740.5
95740.5
95740.6
95740.7
95740.6
95740.8
95740.7
95740.9
95740.9
95740.8
95741
95741
95741.1
95741.2
95741
95741.2
95741
95741.1
95740.9
95741
95740.9
95741
95740.8
95740.9
95740.8
95740.8
95740.7
95740.7
95740.6
95740.6
95740.5
95740.7
95740.2
95740.9
95740.4
95740.3
95740.4
95740.4
95740.1
95740.6
95740.2
95740.6
95740.2
95740
95740.2
95740.1
95740.3
95740.1
95740
95740.1
95740.2
95740.1
95740.1
95740.1
95740.3
95740
95740.1
95739.6
95740
95740
95740
95740.1
95740.2
95740.1
95740.3
95711.9
95711.9
95711.8
95711.8
95711.9
95711.6
95711.9
95711.8
95711.9
95711.7
95711.8
95711.4
95711.7
95711.6
95711.3
95711.9
95711.7
95711.7
95711.7
95711.7
95711.8
95711.9
95712
95711.9
95712.1
95712.2
95712.1
95712.3
95712
95712.3
95712.4
95712.4
95712.4
95712.4
95712.5
95712.6
95712.5
95712.7
95712.7
95712.9
95712.8
95713
95713
95713
95713.3
95713.4
95713.5
95713.5
95713.5
95713.5
95713.6
95713.5
95713.6
95713.3
95713.5
95713.1
95713.1
95713.1
95713.2
95713
95713.1
95712.9
95713
95712.7
95712.9
95712.6
95712.9
95712.4
95712.5
95712.5
95712.6
95712.1
95712.6
95712.3
95712.6
95712.4
95712.2
95712.4
95712.2
95712.2
95712.2
95712.1
95712.2
95712.1
95712.4
95712
95712.2
95712.1
95712.2
95712
95712.2
95712
95711.9
95712
95712.2
95712.1
95712
95712.2
95712.3
95712.1
95683.6
95683.7
95683.5
95683.7
95683.6
95683.7
95683.5
95683.6
95683.4
95683.6
95683.6
95683.5
95683.6
95683.5
95683.3
95683.3
95683.7
95683.5
95683.5
95683.6
95683.6
95683.7
95683.5
95683.9
95683.6
95683.9
95683.8
95683.8
95683.8
95684.1
95683.8
95684.1
95684.1
95684.2
95684.2
95684.3
95684.3
95684.4
95684.5
95684.4
95684.6
95684.5
95684.7
95684.7
95684.6
95684.8
95684.8
95684.8
95684.9
95684.8
95685
95684.8
95684.9
95684.7
95684.8
95684.7
95684.8
95684.6
95684.7
95684.5
95684.6
95684.5
95684.5
95684.3
95684.5
95684.3
95684.3
95684.4
95684.4
95684
95684.5
95684
95684
95684.3
95684
95684.1
95684.2
95683.8
95684
95683.7
95683.6
95683.9
95683.8
95684
95683.6
95683.8
95683.6
95683.9
95684
95683.9
95684.1
95684
95684
95683.9
95683.7
95683.9
95683.6
95683.6
95683.8
95683.8
95655.1
95655.1
95655.2
95655.1
95655.2
95655.1
95655.1
95655.3
95655
95655.1
95655.2
95655.2
95654.9
95654.9
95655.1
95654.9
95655.1
95655.1
95655.1
95655.1
95655.1
95655.2
95655.2
95655.6
95655.3
95655.5
95655.3
95655.4
95655.5
95655.4
95655.6
95655.7
95655.6
95655.7
95655.7
95655.8
95655.8
95655.9
95655.9
95656.1
95656.1
95656.3
95656.2
95656.3
95656.5
95656.6
95656.6
95656.7
95656.7
95656.7
95656.7
95656.6
95656.7
95656.5
95656.6
95656.3
95656.5
95656.3
95656.4
95656.2
95656.3
95656.1
95656.2
95655.9
95656.1
95655.8
95656
95655.5
95656
95655.6
95655.6
95655.7
95655.7
95655.4
95655.7
95655.6
95655.9
95655.5
95655.3
95655.4
95655.2
95655.5
95655.4
95655.4
95655.4
95655.6
95655.4
95655.6
95655.6
95655.7
95655.3
95655.6
95655.2
95655.4
95655.4
95655.3
95655.4
95655.4
95655.3
95655.5
95626.5
95626.4
95626.4
95626.5
95626.5
95626.3
95626.5
95626.1
95626.4
95626.2
95626.4
95626.3
95626.4
95626.3
95626.1
95626.5
95626.1
95626.2
95626.3
95626.4
95626.4
95626.4
95626.7
95626.5
95626.8
95626.8
95626.5
95626.7
95626.5
95626.8
95626.9
95627.1
95626.9
95627
95626.9
95627
95627
95627.1
95627.2
95627.2
95627.3
95627.2
95627.4
95627.4
95627.4
95627.5
95627.5
95627.6
95627.7
95627.6
95627.7
95627.5
95627.6
95627.4
95627.5
95627.4
95627.3
95627.3
95627.4
95627.3
95627.3
95627.2
95627.3
95627.1
95627.4
95627.1
95627.4
95626.9
95627.4
95627
95627.1
95626.6
95627.2
95626.8
95626.9
95626.9
95626.7
95626.8
95626.6
95626.7
95626.6
95626.8
95626.8
95626.7
95626.8
95626.6
95626.8
95626.7
95626.8
95626.7
95626.7
95626.6
95626.7
95626.6
95626.9
95626.7
95626.8
95626.9
95626.8
95626.6
95597.4
95597.3
95597.3
95597.4
95597.3
95597.6
95597.4
95597.4
95597.4
95597.4
95597.5
95597.4
95597.5
95597.3
95597.1
95597.2
95597.3
95597.3
95597.3
95597.5
95597.2
95597.5
95597.3
95597.6
95597.4
95597.7
95597.6
95597.6
95597.7
95597.9
95597.6
95597.7
95598.1
95598.1
95597.9
95598
95598.2
95598.1
95598.3
95598.3
95598.3
95598.5
95598.3
95598.4
95598.6
95598.7
95598.8
95598.8
95598.8
95598.8
95598.8
95598.7
95598.8
95598.6
95598.7
95598.5
95598.5
95598.4
95598.5
95598.3
95598.5
95598.2
95598.4
95598.1
95598.1
95598.1
95598
95598.1
95598
95597.7
95598
95597.8
95597.7
95597.9
95597.9
95597.5
95597.9
95597.5
95597.8
95597.7
95597.6
95597.9
95597.5
95597.7
95597.5
95597.8
95597.6
95597.7
95597.7
95597.8
95597.8
95597.7
95597.9
95597.6
95597.7
95597.8
95597.9
95597.6
95597.7
95597.6
95568.1
95568.1
95568.1
95568
95568.1
95568.1
95568.1
95568.2
95568
95568.2
95568.1
95568
95568.1
95568
95568
95567.8
95568.1
95568.1
95568
95568
95568.1
95568.3
95568.2
95568.4
95568.2
95568.3
95568.3
95568.4
95568.5
95568.3
95568.5
95568.6
95568.3
95568.4
95568.6
95568.7
95568.5
95568.8
95568.7
95568.9
95568.9
95568.8
95569
95569.1
95569.1
95569.2
95569.2
95569.2
95569.3
95569.2
95569.3
95569.1
95569.3
95569.1
95569.2
95569
95569.4
95569
95569
95568.9
95568.9
95568.9
95568.9
95568.7
95568.8
95568.5
95568.9
95568.4
95568.9
95568.5
95568.8
95568.4
95568.6
95568.3
95568.5
95568.4
95568.7
95568.5
95568.3
95568.3
95568.3
95568.4
95568.4
95568.6
95568.4
95568.9
95568.6
95568.6
95568.5
95568.5
95568.2
95568.5
95568.2
95568.2
95568.5
95568.3
95568.8
95568.4
95568.5
95568.5
95538.7
95538.7
95538.7
95538.6
95538.7
95538.6
95538.6
95538.3
95538.4
95538.3
95538.6
95538.6
95538.6
95538.4
95538.5
95538.6
95538.6
95538.3
95538.5
95538.4
95538.7
95538.4
95538.8
95538.8
95538.7
95538.7
95538.6
95539
95538.6
95538.9
95539.1
95539.2
95539
95539.1
95539.3
95539
95539.2
95539.4
95539.3
95539.4
95539.6
95539.6
95539.7
95539.5
95539.7
95539.8
95539.8
95539.8
95539.8
95539.8
95539.8
95539.8
95539.8
95539.7
95539.8
95539.5
95539.4
95539.7
95539.6
95539.4
95539.5
95539.3
95539.5
95539.4
95539.4
95539.2
95539.5
95539
95539.5
95539
95539.3
95538.9
95539.3
95538.9
95538.8
95539.1
95538.8
95539.1
95538.9
95539
95538.6
95538.9
95539
95539
95538.9
95539.5
95539
95539
95538.8
95538.8
95538.7
95538.8
95539
95538.8
95539.1
95538.9
95539.1
95539
95538.7
95538.7
95508.8
95508.8
95508.9
95508.9
95508.8
95509.1
95508.9
95508.8
95509
95508.8
95508.9
95509
95509
95508.6
95508.8
95508.7
95508.6
95508.7
95508.7
95508.8
95508.5
95508.8
95508.6
95509
95508.9
95509.1
95508.8
95508.8
95508.9
95509.2
95508.9
95508.9
95509.4
95509.4
95509
95509.2
95509.5
95509.1
95509.4
95509.5
95509.3
95509.6
95509.4
95509.6
95509.6
95509.7
95509.7
95509.7
95509.8
95509.8
95509.9
95509.7
95509.8
95509.6
95509.7
95509.6
95509.7
95509.3
95509.6
95509.4
95509.5
95509.4
95509.5
95509.1
95509.5
95509.4
95509.3
95509.4
95509.2
95509.2
95509.1
95509.2
95509
95509.3
95509.2
95509
95509.3
95509
95509.2
95509.1
95508.9
95509.2
95508.8
95509.2
95508.9
95509.8
95508.9
95509.1
95508.7
95508.8
95508.9
95509
95509.2
95509.1
95509.3
95509.1
95509.2
95508.9
95508.8
95508.9
95478.8
95478.7
95478.7
95478.5
95478.7
95478.7
95478.7
95478.7
95478.5
95478.9
95478.8
95478.6
95478.9
95478.6
95478.8
95478.4
95478.5
95478.4
95478.6
95478.6
95478.4
95478.8
95478.7
95478.6
95478.9
95478.9
95478.6
95478.8
95479
95478.7
95479
95479.1
95478.9
95478.9
95479.1
95479.3
95479
95479.3
95479.3
95479.6
95479.3
95479.3
95479.5
95479.5
95479.7
95479.7
95479.7
95479.9
95479.8
95479.9
95479.8
95479.7
95479.7
95479.7
95479.7
95479.5
95479.8
95479.5
95479.6
95479.5
95479.5
95479.5
95479.4
95479.2
95479.6
95479
95479.3
95478.8
95479.3
95479.1
95479.2
95478.8
95479.1
95478.7
95479.2
95479.1
95479.3
95479
95478.8
95478.8
95478.9
95479
95478.8
95479.2
95478.6
95479.6
95478.8
95479
95478.6
95478.7
95478.7
95479
95479.1
95478.8
95478.9
95478.9
95479.1
95478.8
95479
95478.9
95448.2
95448.1
95448.1
95448.2
95448.3
95448.1
95448.4
95448
95448.4
95448.1
95448.4
95448.1
95448.4
95448.1
95448.6
95448.1
95448.5
95448
95448.2
95448.1
95448.1
95448
95448.4
95448.4
95448.1
95448.2
95448.2
95448.7
95448.2
95448.6
95448.7
95448.8
95448.6
95448.7
95448.9
95448.5
95448.8
95449.1
95449.1
95448.7
95449.2
95448.9
95449.3
95449.1
95449
95449.2
95449.1
95449
95449.3
95448.9
95449.3
95449.1
95449.2
95449.1
95449.1
95449.1
95448.9
95449.2
95449
95448.8
95448.9
95448.7
95448.9
95449
95448.7
95448.8
95449.1
95448.6
95449.1
95448.5
95449
95448.5
95449
95448.6
95448.6
95448.8
95448.5
95448.7
95448.5
95448.6
95448.3
95448.7
95448.5
95448.6
95448.5
95449.2
95448.6
95448.7
95448.4
95448.5
95448.6
95448.9
95449
95448.6
95448.4
95448.5
95448.4
95448.5
95448.4
95448.6
95417.4
95417.4
95417.6
95417.5
95417.6
95417.4
95417.4
95417.4
95417.8
95417.4
95417.6
95417.6
95417.7
95417.4
95417.6
95417.6
95417.7
95417.6
95417.6
95417.7
95417.5
95417.5
95417.4
95417.7
95417.6
95417.7
95417.8
95417.5
95417.7
95418
95417.7
95417.7
95418.2
95418.2
95417.8
95418
95418.2
95417.9
95418
95418.3
95418.1
95418.4
95418.2
95418.6
95418.5
95418.5
95418.7
95418.6
95418.8
95418.6
95418.8
95418.5
95418.8
95418.5
95418.5
95418.3
95418.5
95418.1
95418.6
95418.3
95418.5
95418.2
95418.3
95418
95418.3
95418
95418
95418.3
95418
95418
95417.9
95418
95417.8
95418.1
95418
95418
95418.1
95418
95418
95418
95417.8
95417.9
95417.9
95418.2
95418
95418.5
95418
95417.8
95417.8
95417.9
95417.8
95417.8
95417.9
95418
95417.8
95417.9
95417.7
95417.9
95417.9
95418
95386.7
95386.4
95386.7
95386.3
95386.7
95386.2
95386.4
95386.5
95386.4
95386.6
95386.6
95386.5
95386.7
95386.6
95387.1
95386.6
95386.6
95386.6
95386.7
95386.6
95386.7
95386.7
95386.6
95386.5
95386.9
95386.9
95386.6
95386.8
95386.9
95386.6
95386.9
95387
95386.8
95386.9
95387.1
95387.3
95387.1
95387.2
95387.3
95387.5
95387.3
95387.4
95387.4
95387.2
95387.6
95387.4
95387.2
95387.5
95387.3
95387.7
95387.4
95387.4
95387.3
95387.4
95387.4
95387.4
95387.4
95387.3
95387.1
95387.5
95387.2
95387.4
95387.3
95387.1
95387.5
95387.1
95387.3
95386.8
95387.2
95387.1
95387.1
95386.9
95387.1
95386.7
95387.1
95386.9
95387.2
95387
95387
95386.9
95386.9
95387
95386.7
95387.4
95386.7
95387.1
95386.9
95386.7
95386.7
95386.9
95386.7
95386.8
95386.8
95386.8
95386.7
95387
95386.8
95387
95387.2
95387.1
95355.2
95355.1
95355.1
95355
95355
95355.1
95355.3
95355.1
95355.5
95355.2
95355.5
95355.1
95355.5
95355.4
95355.8
95355.2
95355.6
95355.1
95355.3
95355.2
95355
95355.3
95355.5
95355.5
95355.3
95355.4
95355.3
95355.8
95355.3
95355.6
95355.8
95355.9
95355.8
95355.8
95355.9
95355.6
95355.9
95356.2
95356.2
95355.8
95356.1
95355.9
95356.1
95356.1
95355.9
95356.4
95356.2
95356.1
95356.3
95356
95356.3
95356.4
95356.3
95356.2
95356.2
95356.3
95356.2
95356.2
95356.1
95355.8
95356.2
95355.8
95356.3
95355.8
95355.8
95356
95356.2
95355.7
95356.2
95355.6
95356
95355.8
95356
95355.7
95355.6
95355.9
95355.6
95355.8
95355.6
95355.6
95355.5
95355.8
95355.5
95355.7
95355.5
95355.9
95355.5
95355.7
95355.4
95355.6
95355.3
95355.9
95355.5
95355.7
95355.4
95355.5
95355.3
95355.6
95355.6
95355.6
95323.6
95323.7
95323.7
95323.6
95323.6
95323.6
95323.6
95323.7
95324
95323.7
95323.7
95323.7
95323.8
95323.7
95323.9
95323.8
95324.1
95323.9
95323.9
95324
95323.7
95323.7
95323.7
95324
95323.9
95324
95324.1
95323.8
95324
95324.2