/*--------------------------------*- C++ -*----------------------------------*\
| =========                 |                                                 |
| \\      /  F ield         | OpenFOAM: The Open Source CFD Toolbox           |
|  \\    /   O peration     | Version:  2312                                  |
|   \\  /    A nd           | Website:  www.openfoam.com                      |
|    \\/     M anipulation  |                                                 |
\*---------------------------------------------------------------------------*/
FoamFile
{
    version     2.0;
    format      ascii;
    arch        "LSB;label=32;scalar=64";
    class       surfaceScalarField;
    location    "3";
    object      phi;
}
// * * * * * * * * * * * * * * * * * * * * * * * * * * * * * * * * * * * * * //

dimensions      [0 3 -1 0 0 0 0];

oriented        oriented;

internalField   nonuniform List<scalar> 
99400
(
2.20468e-05
6.66767e-05
4.33216e-05
7.17109e-05
2.86773e-05
0.000112078
1.86819e-05
0.000112119
-6.54359e-06
0.0001323
-2.10152e-05
0.000126708
-1.73036e-05
0.000113925
-2.85723e-05
0.000134552
-4.61009e-05
0.000146724
-7.13908e-05
0.000160735
-0.000103708
0.000174303
-9.17657e-05
0.000136877
-2.61962e-05
9.04086e-05
5.84778e-05
7.88054e-05
0.000101253
0.000128571
6.87987e-05
0.000212047
2.02558e-05
0.000236766
-5.27406e-06
0.000222747
-3.00523e-05
0.000231402
-5.7514e-05
0.000244149
-5.21616e-05
0.000221789
-1.2287e-05
0.000198198
2.57985e-05
0.000211443
4.36711e-05
0.000243656
6.13499e-05
0.00025643
3.64439e-05
0.000312193
-7.68106e-06
0.000345173
-4.04157e-05
0.000348052
-7.12159e-05
0.000361457
-6.34625e-05
0.000338943
8.69329e-07
0.000299059
6.77529e-05
0.000313992
7.36466e-05
0.000393284
3.75434e-05
0.000454286
4.71012e-06
0.000470858
-2.79666e-05
0.000491722
-6.11832e-05
0.000514532
-2.42931e-05
0.000467912
4.65482e-05
0.000458329
4.14131e-05
0.00055959
-8.45208e-07
0.000623014
-2.40901e-05
0.000632021
3.8676e-06
0.000610372
4.78979e-05
0.000625043
3.76241e-05
0.000711284
2.10608e-05
0.000751256
1.3338e-05
0.000777786
4.71531e-06
0.000815758
3.45186e-06
0.000847278
4.75262e-07
0.000889669
1.295e-06
0.000885898
-3.88918e-06
0.000851174
-9.87641e-06
0.000813134
-2.09639e-05
0.000781152
-2.96424e-05
0.000743417
3.34946e-06
0.000668213
3.35872e-05
0.00063878
2.021e-05
0.000651489
1.22986e-06
0.00062775
-1.80793e-05
0.000600085
-3.36417e-05
0.000569725
-4.63069e-05
0.00054144
-6.36082e-05
0.000521731
-7.62826e-05
0.000494153
-4.97709e-05
0.000433082
2.07116e-05
0.00036804
1.76936e-05
0.000421155
-3.13045e-05
0.000447943
-5.68262e-06
0.000355233
5.26852e-05
0.000305018
7.21655e-05
0.000327213
4.14221e-05
0.000361438
1.43378e-05
0.000342378
-2.15555e-05
0.00033689
-6.06348e-05
0.000326357
-5.46829e-05
0.000268159
-3.63099e-05
0.000243158
-1.34863e-05
0.000226704
3.78248e-05
0.000186767
7.91375e-05
0.000185835
7.71067e-05
0.000218749
4.66548e-05
0.000237199
2.00539e-05
0.00022376
-2.66324e-06
0.00021085
-4.1989e-05
0.000218895
-6.83022e-05
0.000197656
-3.90462e-05
0.000134225
2.24479e-05
9.44813e-05
6.45719e-05
0.00010669
4.86934e-05
0.000157859
2.69656e-05
0.000157156
7.49971e-06
0.000148668
-1.25277e-05
0.000143335
-7.36582e-06
0.000112487
9.69962e-06
9.51806e-05
2.52504e-05
9.15432e-05
3.81074e-05
8.93199e-05
2.78224e-05
0.00010777
1.22252e-05
0.000108599
0.000100924
4.25597e-05
2.41692e-05
7.63962e-05
3.79225e-05
5.47704e-05
0.000133755
-7.55954e-06
0.000174504
-5.65543e-05
0.00018135
-4.18684e-05
0.000112075
-6.66546e-06
7.8778e-05
1.81464e-06
0.000126143
-4.27419e-05
0.00019135
-9.34276e-05
0.000211479
-0.000117067
0.000198001
-9.30779e-05
0.000112943
-1.73408e-05
1.47261e-05
5.55456e-05
5.97388e-06
0.000105265
7.8911e-05
0.000105861
0.000211522
5.94431e-05
0.000283271
-6.97011e-06
0.000289254
-6.89847e-05
0.000293556
-9.44216e-05
0.000269702
-7.37843e-05
0.000201253
-2.35402e-05
0.000148053
1.93313e-05
0.000168674
4.40892e-05
0.000219014
7.66342e-05
0.000224008
7.51521e-05
0.000313813
1.82334e-06
0.000418665
-7.10597e-05
0.00042115
-0.000102581
0.000393216
-7.68094e-05
0.00031334
-6.62824e-06
0.000229035
6.23896e-05
0.000245139
9.10678e-05
0.000364782
5.45511e-05
0.000491047
2.87464e-06
0.000522949
-4.78848e-05
0.00054292
-7.87733e-05
0.000545863
-3.32725e-05
0.000422763
4.71301e-05
0.000378211
6.59165e-05
0.000541256
-6.32881e-06
0.000695807
-4.83957e-05
0.000674764
-1.0372e-05
0.000572951
2.54482e-05
0.000589821
2.29602e-05
0.000714519
1.04973e-05
0.000764548
5.83278e-06
0.000783319
1.55563e-06
0.000820945
1.66409e-06
0.00084811
-5.83335e-07
0.00089291
6.3692e-07
0.000885664
1.07374e-07
0.000852651
-2.82519e-06
0.000816972
-9.29469e-06
0.000788493
-1.20043e-05
0.000746939
9.2298e-06
0.000647657
3.0746e-05
0.000617909
2.75768e-05
0.000655365
1.426e-05
0.000641763
-7.83414e-06
0.000622824
-1.72507e-05
0.000579773
-1.09605e-05
0.000535753
-5.0496e-05
0.000561758
-7.6666e-05
0.000520653
-3.77848e-05
0.000394443
4.08124e-05
0.000289648
4.09896e-05
0.000421361
-2.5537e-05
0.000514689
-2.45997e-06
0.000332333
6.1313e-05
0.000241408
9.24859e-05
0.000296211
7.81001e-05
0.000376046
1.41437e-05
0.000406573
-6.12018e-05
0.000412405
-8.15209e-05
0.00034682
-5.67183e-05
0.000243479
-3.25012e-05
0.000219055
-1.2181e-06
0.000195527
4.64544e-05
0.000139187
9.7234e-05
0.000135147
0.000115451
0.000200626
8.7278e-05
0.000265478
3.14384e-05
0.000279728
-3.24524e-05
0.000274839
-8.13047e-05
0.000267833
-8.19462e-05
0.00019837
-3.9866e-05
9.22055e-05
1.39451e-05
4.07246e-05
7.05339e-05
5.01566e-05
8.48767e-05
0.000143576
3.75389e-05
0.000204564
-2.33103e-05
0.000209584
-5.06034e-05
0.000170682
-2.64379e-05
8.83661e-05
9.92948e-06
5.8855e-05
4.07343e-05
6.0779e-05
6.98289e-05
6.02663e-05
7.44688e-05
0.000103173
4.31298e-05
0.000139985
0.000144105
2.42656e-05
-9.44664e-08
3.31522e-05
2.90427e-05
2.23881e-05
0.000144522
6.31841e-06
0.000190579
-6.38398e-06
0.000194052
-2.58828e-05
0.000131571
-5.12026e-05
0.000104095
-2.60829e-05
0.000101022
-1.67458e-05
0.000182025
-3.45708e-05
0.000229297
-4.27265e-05
0.000206153
-4.31667e-05
0.000113379
-6.86885e-06
-2.15804e-05
4.14728e-05
-4.23768e-05
5.66214e-05
6.37532e-05
4.34132e-05
0.000224727
1.22042e-05
0.000314485
-3.04866e-05
0.000331946
-6.23882e-05
0.000325483
-6.52444e-05
0.000272563
-4.76244e-05
0.000183627
-2.69892e-05
0.000127411
3.27649e-06
0.000138401
3.28451e-05
0.000189438
3.646e-05
0.000220385
2.38774e-05
0.000326393
-1.07221e-05
0.00045327
-5.98734e-05
0.000470337
-6.27184e-05
0.000396079
-3.70709e-05
0.000287684
-7.45955e-06
0.000199413
1.33287e-05
0.00022434
1.6712e-05
0.000361391
4.64107e-06
0.000503128
-1.19906e-05
0.000539757
-2.81436e-05
0.000559266
-4.34139e-05
0.000561217
-1.46309e-05
0.000393968
5.82041e-06
0.000357747
-5.2218e-07
0.000547592
-1.31045e-05
0.000708542
-2.1791e-05
0.000683565
-3.46433e-06
0.000554619
1.74026e-05
0.000568947
1.54932e-05
0.000716514
1.05656e-05
0.000769564
8.04135e-06
0.000785904
2.48932e-06
0.000826536
2.23289e-06
0.000848371
1.74148e-07
0.000894986
1.52135e-06
0.00088432
-1.74057e-06
0.000855929
-5.09914e-06
0.000820356
-1.03943e-05
0.000793849
-1.37912e-05
0.000750388
8.51486e-06
0.000625347
2.67325e-05
0.000599688
2.24989e-05
0.00065968
1.30042e-05
0.000651362
1.10908e-05
0.00062488
2.43847e-06
0.000588519
-1.07924e-05
0.00054903
-1.91912e-05
0.000570275
-2.13769e-05
0.000522856
-1.40672e-05
0.00038712
1.7959e-05
0.00025761
2.52452e-05
0.000414112
8.24434e-06
0.000531714
2.05341e-05
0.000320028
3.75033e-05
0.000224428
6.23511e-05
0.000271355
6.28067e-05
0.000375604
1.95689e-05
0.000449855
-1.69646e-05
0.000448944
-3.85369e-05
0.000368393
-4.47902e-05
0.000249722
-1.61537e-05
0.000190411
2.00545e-05
0.000159312
4.92044e-05
0.00011003
6.92547e-05
0.00011509
8.16425e-05
0.000188234
7.45319e-05
0.000272593
4.10428e-05
0.000313239
-4.69141e-06
0.000320586
-3.52761e-05
0.000298422
-4.76638e-05
0.000210754
-3.07397e-05
7.52746e-05
3.1965e-06
6.78174e-06
3.03876e-05
2.296e-05
4.19478e-05
0.000132013
2.68759e-05
0.00021964
7.5411e-06
0.000228923
-5.26113e-06
0.000183481
-1.18614e-05
9.49608e-05
7.95678e-06
3.90321e-05
3.10003e-05
3.77311e-05
4.0368e-05
5.08954e-05
3.53569e-05
0.000108184
2.17299e-05
0.000153614
0.000165839
3.61375e-05
-3.6234e-05
4.68048e-05
1.83802e-05
3.52998e-05
0.000156041
3.77488e-05
0.000188133
3.90095e-05
0.000192786
-1.53359e-05
0.000185913
-4.24745e-05
0.000131229
-2.70876e-05
8.56339e-05
-3.88052e-06
0.000158829
5.06221e-07
0.000224908
-2.98915e-05
0.000236545
-4.00633e-05
0.000123545
-6.02062e-07
-6.10493e-05
4.09448e-05
-8.39343e-05
6.09293e-05
4.37615e-05
3.44041e-05
0.000251249
-5.64024e-06
0.000354531
-3.36104e-05
0.000359921
-5.77159e-05
0.000349609
-7.19505e-05
0.000286799
-6.11297e-05
0.000172802
-3.00907e-05
9.63666e-05
2.45803e-06
0.000105847
2.4646e-05
0.000167245
4.01108e-05
0.000204913
2.33557e-05
0.000343132
-1.96517e-05
0.000496277
-5.38437e-05
0.000504557
-6.66697e-05
0.000408915
-5.03085e-05
0.000271316
-1.17433e-05
0.00016084
2.59747e-05
0.000186614
3.13444e-05
0.000356026
7.13721e-06
0.000527401
-2.01217e-05
0.000567078
-4.09894e-05
0.000580226
-4.95651e-05
0.000569861
-2.45795e-05
0.000368973
2.76565e-05
0.000305501
2.68812e-05
0.000548357
-1.18615e-05
0.00074739
-2.3801e-05
0.000695524
-9.27392e-06
0.000540079
1.57432e-05
0.000543916
1.83653e-05
0.000713882
1.12714e-05
0.000776647
6.5948e-06
0.000790562
9.35189e-07
0.000832172
9.51272e-07
0.000848328
-2.79431e-07
0.000896188
6.6584e-07
0.000883346
3.60193e-07
0.000856207
-1.61935e-06
0.000822312
-7.1499e-06
0.000799362
-8.18375e-06
0.000751403
1.12643e-05
0.000605884
2.93731e-05
0.000581564
1.17615e-05
0.000677281
1.00711e-06
0.000662113
2.56387e-05
0.000600266
-5.71047e-06
0.000619869
-4.93935e-05
0.000592703
-3.27324e-05
0.000553676
-2.39887e-05
0.000514175
-1.18149e-05
0.000374934
3.53779e-05
0.000210408
3.37539e-05
0.000415748
4.25518e-06
0.00056126
1.71807e-05
0.000307091
4.45518e-05
0.000197049
6.54677e-05
0.000250433
6.0424e-05
0.000380649
3.17549e-05
0.00047855
3.98009e-07
0.000480294
-3.41e-05
0.000402883
-3.56648e-05
0.000251276
-1.11292e-05
0.00016587
1.71251e-05
0.000131053
5.14524e-05
7.56971e-05
8.45698e-05
8.19675e-05
9.27987e-05
0.000180002
6.77591e-05
0.000297634
3.89178e-05
0.000342094
1.14014e-05
0.000348112
-2.53996e-05
0.000335225
-5.24448e-05
0.000237796
-3.40694e-05
5.6893e-05
-8.36453e-07
-2.64582e-05
3.44528e-05
-1.2334e-05
4.26825e-05
0.000123781
3.13597e-05
0.000230971
2.75245e-05
0.000232763
4.90906e-06
0.000206093
-1.5982e-06
0.000101464
1.7074e-05
2.03564e-05
3.72625e-05
1.754e-05
4.66589e-05
4.14969e-05
2.18118e-05
0.00013303
4.51212e-06
0.000170914
0.000170351
3.14e-05
-6.76379e-05
3.86642e-05
1.11134e-05
3.76829e-05
0.000157039
4.57073e-05
0.000180113
3.89551e-05
0.000199534
3.64973e-05
0.000188365
2.50518e-05
0.000142669
1.37982e-06
0.000109302
1.23195e-05
0.000147892
2.31496e-05
0.00021408
1.50464e-05
0.000244638
2.67693e-07
0.000138314
9.31664e-06
-7.01092e-05
2.4314e-05
-9.89424e-05
1.61796e-05
5.18868e-05
-1.31658e-06
0.000268742
-2.45512e-05
0.000377765
-5.0021e-05
0.000385396
-7.02611e-05
0.000369862
-6.91418e-05
0.000285679
-4.57472e-05
0.000149403
-2.94377e-05
8.00488e-05
-1.12848e-05
8.76863e-05
2.45119e-06
0.000153502
-4.12585e-06
0.000211482
-8.16823e-06
0.000347153
-2.97739e-05
0.000517873
-5.81378e-05
0.000532934
-5.1024e-05
0.0004018
-2.57724e-05
0.000246058
-1.36898e-05
0.000148747
-1.39291e-05
0.000186841
-1.57668e-05
0.000357859
-1.31814e-05
0.000524869
-2.3442e-05
0.000577364
-3.01535e-05
0.000586974
-2.96364e-05
0.000569375
-1.91769e-05
0.000358503
-1.90372e-05
0.000305349
-2.46758e-05
0.000553984
-2.01003e-05
0.000742852
-1.82292e-05
0.000693649
-7.7407e-06
0.000529578
1.45523e-06
0.000534707
1.79397e-06
0.000713534
2.70599e-06
0.000775725
1.98966e-06
0.000791266
-2.34363e-07
0.000834376
1.01779e-06
0.000847055
-2.77358e-07
0.000897461
2.27666e-06
0.000880769
1.54513e-06
0.000856917
-5.05853e-07
0.000824349
-2.07178e-06
0.000800916
-2.94386e-06
0.000752264
8.36842e-06
0.000594557
1.89713e-05
0.000570948
2.21442e-05
0.000674099
1.72384e-05
0.000667012
8.13533e-06
0.000609362
1.22172e-05
0.000615782
1.39063e-05
0.000591011
1.295e-05
0.000554657
1.967e-05
0.000507495
1.17631e-05
0.000382834
1.84572e-05
0.000203702
3.21641e-05
0.000402039
2.54416e-05
0.00056803
2.71524e-05
0.000305375
3.20403e-05
0.000192152
5.3306e-05
0.00022916
6.07196e-05
0.000373231
4.15876e-05
0.000497696
2.06139e-05
0.000501248
1.37208e-05
0.000409748
6.22826e-06
0.000258758
4.25046e-06
0.00016784
2.81519e-05
0.000107144
4.82103e-05
5.56306e-05
6.31911e-05
6.69789e-05
7.88269e-05
0.000164362
7.19433e-05
0.000304516
5.01807e-05
0.000363867
2.39129e-05
0.000374385
7.49697e-07
0.000358387
-1.22464e-05
0.000250788
-1.69911e-05
6.16296e-05
-4.48899e-06
-3.89689e-05
1.31696e-05
-2.99996e-05
3.37888e-05
0.000103159
3.75706e-05
0.000227194
3.39257e-05
0.00023641
3.14876e-05
0.000208529
2.48121e-05
0.000108135
2.25477e-05
2.26166e-05
2.48929e-05
1.51911e-05
2.3258e-05
4.31287e-05
1.85087e-05
0.000137779
6.86518e-06
0.000182559
0.000177216
1.87094e-05
-8.6352e-05
2.04323e-05
9.38721e-06
3.27501e-05
0.000144735
5.26944e-05
0.00016018
5.60487e-05
0.000196183
5.29913e-05
0.00019142
3.04653e-05
0.000165192
-2.3689e-06
0.000142134
8.47696e-06
0.000137044
3.66836e-05
0.000185882
2.95563e-05
0.000251761
9.29149e-06
0.000158569
1.45168e-05
-7.53449e-05
1.68751e-05
-0.000101315
-5.04078e-06
7.37952e-05
-3.19013e-05
0.000295602
-4.21908e-05
0.000388053
-4.85975e-05
0.000391808
-5.6056e-05
0.000377329
-6.67649e-05
0.000296387
-5.82348e-05
0.000140868
-3.56287e-05
5.74358e-05
-1.49794e-05
6.70291e-05
-4.16297e-07
0.000138933
-1.33694e-05
0.000224428
-3.63378e-05
0.000370108
-4.02265e-05
0.000521737
-4.37713e-05
0.000536485
-4.45672e-05
0.000402595
-3.45425e-05
0.000236028
-1.54761e-05
0.000129671
-4.38006e-07
0.000171794
-8.66061e-06
0.00036608
-2.1351e-05
0.000537587
-2.59777e-05
0.000582005
-2.67548e-05
0.000587767
-2.85136e-05
0.000571148
-2.26359e-05
0.000352617
6.66222e-06
0.00027604
-2.8732e-06
0.000563512
-1.69137e-05
0.00075691
-1.08529e-05
0.000687586
-5.88281e-06
0.000524599
1.29056e-05
0.000515908
1.4836e-05
0.000711592
8.68509e-06
0.000781865
4.93044e-06
0.000795007
-3.77358e-07
0.000839668
3.61148e-07
0.000846298
1.65205e-06
0.000896151
3.06068e-06
0.000879341
1.24212e-06
0.000858717
-1.31251e-06
0.000826888
-7.96429e-06
0.000807555
-9.10461e-06
0.000753392
9.02856e-06
0.000576413
2.45531e-05
0.000555413
1.69384e-05
0.000681706
1.05474e-06
0.000682889
1.45833e-05
0.000595825
8.11779e-06
0.000622243
-3.51464e-05
0.000634271
-1.47366e-05
0.000534247
9.82097e-06
0.000482951
6.82687e-06
0.000385825
2.80514e-05
0.000182466
3.00332e-05
0.000400053
2.31845e-05
0.000574924
2.65322e-05
0.00030203
3.84057e-05
0.000180271
4.97104e-05
0.00021785
4.73716e-05
0.000375568
4.5084e-05
0.000499991
4.49077e-05
0.000501411
2.57416e-05
0.00042888
7.28456e-06
0.000277202
1.05014e-05
0.000164616
2.97566e-05
8.78829e-05
5.2306e-05
3.30725e-05
7.20608e-05
4.72173e-05
7.52029e-05
0.000161217
6.05709e-05
0.000319149
4.7764e-05
0.000376682
3.99832e-05
0.000382171
3.07221e-05
0.000367648
2.34648e-06
0.000279162
-1.16047e-05
7.55742e-05
1.69582e-06
-5.22797e-05
1.31886e-05
-4.14991e-05
1.99096e-05
9.64344e-05
3.05661e-05
0.00021654
3.92417e-05
0.000227737
3.9454e-05
0.000208317
3.08041e-05
0.000116783
2.93008e-05
2.41162e-05
3.0512e-05
1.39766e-05
2.48084e-05
4.88294e-05
1.39642e-05
0.000148623
8.39325e-06
0.000188132
0.000185607
3.79234e-06
-9.015e-05
1.87971e-06
1.12959e-05
2.81043e-05
0.000118516
4.93118e-05
0.000138985
5.27158e-05
0.000192788
4.55631e-05
0.000198576
3.49426e-05
0.000175812
2.7888e-05
0.000149186
3.04077e-05
0.000134522
4.32318e-05
0.000173067
3.83137e-05
0.00025668
2.38505e-05
0.000173028
1.65713e-05
-6.80783e-05
-7.66297e-07
-8.39903e-05
-3.21113e-05
0.00010513
-4.72568e-05
0.000310746
-5.3685e-05
0.00039448
-5.54346e-05
0.00039356
-6.1391e-05
0.000383293
-6.32173e-05
0.000298212
-4.91541e-05
0.000126799
-3.76042e-05
4.58766e-05
-2.65112e-05
5.5928e-05
-2.63469e-05
0.000138761
-4.16713e-05
0.000239746
-4.58404e-05
0.000374265
-4.64868e-05
0.00052236
-4.48247e-05
0.000534831
-3.88876e-05
0.000396659
-2.44364e-05
0.000221569
-1.98702e-05
0.000125094
-3.12131e-05
0.000183125
-3.45089e-05
0.000369371
-2.95552e-05
0.000532641
-2.92646e-05
0.000581718
-2.40953e-05
0.000582602
-2.18992e-05
0.000568954
-2.29765e-05
0.000353685
-2.99776e-05
0.000283027
-3.11329e-05
0.000564659
-2.28971e-05
0.000748679
-1.79326e-05
0.000682619
-1.11629e-05
0.00051782
-8.32895e-06
0.000513063
-7.00121e-06
0.000710258
-2.82189e-06
0.000777679
-3.12712e-06
0.000795304
-2.92215e-06
0.000839449
4.07592e-07
0.000842952
-6.62897e-07
0.000897204
2.27306e-06
0.000876388
4.54902e-06
0.000856425
4.0398e-06
0.000827388
5.35014e-06
0.000806237
5.76994e-06
0.000752964
9.09743e-06
0.000573074
1.4337e-05
0.000550162
2.00848e-05
0.000675953
2.16299e-05
0.000681339
1.39175e-05
0.00060353
1.36316e-05
0.000622523
2.94124e-05
0.000618484
3.57247e-05
0.00052793
3.38503e-05
0.000484827
2.274e-05
0.000396929
1.88832e-05
0.000186311
3.74809e-05
0.00038145
3.81479e-05
0.000574289
3.20506e-05
0.000308124
3.29327e-05
0.000179379
4.699e-05
0.000203784
5.21083e-05
0.000370449
5.14665e-05
0.000500648
5.0086e-05
0.000502793
5.1313e-05
0.000427634
4.47527e-05
0.000283754
2.90603e-05
0.000180303
3.80792e-05
7.88559e-05
5.00673e-05
2.10757e-05
6.24075e-05
3.48682e-05
7.16731e-05
0.000151947
6.12159e-05
0.000329605
5.15585e-05
0.000386343
4.76282e-05
0.000386106
4.4597e-05
0.00037068
3.17819e-05
0.000291975
1.02122e-05
9.71364e-05
3.12976e-06
-4.52067e-05
4.95515e-06
-4.3333e-05
1.82983e-05
8.30874e-05
3.36671e-05
0.000201174
4.36792e-05
0.000217728
4.34825e-05
0.000208516
3.7783e-05
0.000122481
3.41688e-05
2.77274e-05
3.15175e-05
1.66239e-05
2.25259e-05
5.78183e-05
1.25315e-05
0.000158618
1.89004e-06
0.000198774
0.000187492
1.53978e-06
-9.16961e-05
-1.03287e-05
2.31601e-05
1.67103e-05
9.14781e-05
4.86005e-05
0.000107101
4.77168e-05
0.000193681
4.30902e-05
0.000203208
3.78282e-05
0.000181076
3.38137e-05
0.000153202
3.06989e-05
0.000137635
3.09731e-05
0.000172797
2.42363e-05
0.00026342
1.22813e-05
0.000184983
7.56809e-06
-6.33749e-05
-6.06201e-06
-7.03758e-05
-3.91476e-05
0.000138207
-5.74868e-05
0.000329081
-5.79784e-05
0.000394971
-5.38198e-05
0.000389405
-5.45835e-05
0.000384059
-5.65346e-05
0.000300163
-4.7303e-05
0.000117562
-3.84972e-05
3.70624e-05
-3.06435e-05
4.80651e-05
-2.72515e-05
0.000135364
-4.01351e-05
0.000252625
-6.10868e-05
0.000395211
-5.75709e-05
0.000518844
-3.8843e-05
0.000516126
-3.53877e-05
0.00039321
-2.91958e-05
0.000215371
-1.96309e-05
0.000115517
-2.0052e-05
0.000183536
-3.29194e-05
0.000382234
-3.79135e-05
0.000537638
-2.67983e-05
0.000570606
-1.821e-05
0.000574017
-2.13487e-05
0.000572093
-2.18251e-05
0.000354152
-1.17658e-05
0.000272956
-2.10084e-05
0.000573896
-1.68955e-05
0.00074457
-6.5815e-06
0.000672303
-5.33182e-06
0.000516562
9.77312e-06
0.000497949
1.07219e-05
0.000709301
4.95484e-06
0.000783438
2.24393e-06
0.000798005
-1.20259e-06
0.000842884
5.66631e-07
0.000841169
1.62318e-06
0.000896134
3.49647e-06
0.000874499
2.57973e-06
0.000857328
9.22227e-07
0.000829034
-5.78543e-06
0.000812935
-7.52072e-06
0.00075469
7.4281e-06
0.000558115
1.98506e-05
0.000537731
2.46893e-05
0.000671109
1.05396e-05
0.000695486
-1.39855e-06
0.00061546
6.96505e-06
0.000614157
-1.05475e-05
0.000635995
-4.37443e-06
0.000521753
1.37121e-05
0.000466737
1.32338e-05
0.000397402
2.34566e-05
0.000176075
3.15658e-05
0.000373337
3.54479e-05
0.000570427
3.17761e-05
0.000311794
3.7135e-05
0.00017401
4.22921e-05
0.00019862
3.88758e-05
0.000373865
4.92636e-05
0.000490294
6.36038e-05
0.000488474
6.33299e-05
0.000427915
4.48323e-05
0.000302256
3.41393e-05
0.000190992
4.11336e-05
7.18541e-05
5.07708e-05
1.14281e-05
5.49673e-05
3.06636e-05
5.50759e-05
0.000151834
5.33423e-05
0.000331338
5.33213e-05
0.000386368
5.69193e-05
0.00038251
5.30709e-05
0.000374527
3.94272e-05
0.000305616
1.92198e-05
0.000117336
1.28377e-05
-3.88357e-05
1.05918e-05
-4.10951e-05
1.76633e-05
7.60116e-05
3.08151e-05
0.000188023
3.8625e-05
0.000209921
3.67636e-05
0.00021038
3.63369e-05
0.000122908
3.66797e-05
2.73815e-05
3.52108e-05
1.80892e-05
2.4092e-05
6.89345e-05
4.54585e-06
0.000178166
-4.1336e-06
0.000207453
0.000183356
-7.85272e-07
-9.09171e-05
-6.49267e-06
2.88636e-05
6.67684e-06
7.83066e-05
1.85209e-05
9.52568e-05
1.90408e-05
0.000193168
1.81e-05
0.000204157
2.34731e-05
0.000175708
3.59064e-05
0.00014077
4.07087e-05
0.000132831
3.06545e-05
0.000182851
1.49547e-05
0.000279123
9.80348e-06
0.000190137
1.0494e-06
-5.46329e-05
-2.32634e-05
-4.60752e-05
-5.4015e-05
0.000168948
-6.47463e-05
0.000339804
-6.22031e-05
0.000392425
-5.10115e-05
0.000378211
-5.03466e-05
0.000383396
-5.17359e-05
0.00030155
-4.55167e-05
0.000111337
-3.93377e-05
3.08727e-05
-3.63786e-05
4.50965e-05
-4.77406e-05
0.000146718
-5.89987e-05
0.000263881
-6.04072e-05
0.000396627
-5.7073e-05
0.000515534
-4.2317e-05
0.000501413
-3.61316e-05
0.000387028
-2.63654e-05
0.000205598
-2.527e-05
0.00011441
-4.0819e-05
0.000199072
-4.505e-05
0.000386461
-3.87216e-05
0.00053131
-2.8937e-05
0.000560823
-2.07679e-05
0.000565848
-2.06076e-05
0.000571932
-2.3957e-05
0.000357492
-3.23789e-05
0.000281363
-2.88545e-05
0.000570365
-2.30524e-05
0.000738769
-1.84076e-05
0.000667656
-1.21015e-05
0.000510247
-1.52433e-05
0.000501079
-1.32472e-05
0.000707299
-6.59549e-06
0.000776781
-6.5045e-06
0.000797907
-4.74156e-06
0.000841109
-4.82902e-07
0.000836898
-9.59485e-07
0.000896597
1.83782e-06
0.000871688
6.57121e-06
0.000852582
8.11557e-06
0.000827479
1.02307e-05
0.00081081
1.19037e-05
0.000753007
1.13332e-05
0.000558674
1.16842e-05
0.00053737
1.65511e-05
0.000666238
2.18792e-05
0.000690155
1.8863e-05
0.00061847
2.07218e-05
0.000612295
3.87965e-05
0.000617918
4.22682e-05
0.000518277
3.56517e-05
0.00047335
2.66868e-05
0.00040636
2.06912e-05
0.000182058
4.08673e-05
0.000353155
4.5148e-05
0.000566157
3.57182e-05
0.000321219
3.54155e-05
0.000174303
4.1815e-05
0.000192212
4.16321e-05
0.000374048
5.05883e-05
0.000481379
6.49018e-05
0.000474204
6.8167e-05
0.000424681
5.92435e-05
0.000311187
4.35102e-05
0.000206721
4.42737e-05
7.1081e-05
4.93592e-05
6.33224e-06
5.17608e-05
2.82518e-05
4.84887e-05
0.000155101
4.65879e-05
0.000333236
5.06912e-05
0.000382264
5.90747e-05
0.000374127
6.15553e-05
0.000372043
5.60075e-05
0.000311156
3.25222e-05
0.000140813
1.66575e-05
-2.298e-05
1.00826e-05
-3.45296e-05
1.60595e-05
7.00309e-05
2.66753e-05
0.000177406
3.18429e-05
0.000204754
3.30157e-05
0.000209209
4.023e-05
0.000115693
4.04505e-05
2.71582e-05
3.33898e-05
2.51454e-05
1.26714e-05
8.96509e-05
-4.42591e-06
0.000195264
-1.49574e-06
0.000204518
0.000181861
-3.55821e-06
-8.73657e-05
-1.29145e-05
3.82172e-05
-7.26327e-06
7.26526e-05
8.64894e-06
7.93436e-05
2.1103e-05
0.000180719
1.67329e-05
0.000208533
2.47584e-05
0.000167687
2.93315e-05
0.000136196
2.18241e-05
0.000140333
2.21709e-05
0.000182503
7.94438e-06
0.000293353
-5.32569e-06
0.000203411
-7.24549e-06
-5.27235e-05
-2.75192e-05
-2.5816e-05
-5.80958e-05
0.000199516
-6.93453e-05
0.000351041
-6.33211e-05
0.000386391
-4.55885e-05
0.000360473
-3.90629e-05
0.000376868
-4.57498e-05
0.000308234
-4.75684e-05
0.000113149
-4.1103e-05
2.4398e-05
-3.65492e-05
4.05325e-05
-4.07267e-05
0.000150889
-5.82284e-05
0.000281382
-7.21283e-05
0.000410546
-5.75545e-05
0.000501005
-2.65908e-05
0.000470499
-2.69104e-05
0.00038735
-2.87395e-05
0.00020742
-2.3225e-05
0.000108883
-3.26001e-05
0.000208437
-4.65114e-05
0.000400368
-4.27021e-05
0.000527502
-2.40129e-05
0.000542135
-1.65577e-05
0.000558393
-2.04524e-05
0.000575826
-2.15057e-05
0.000358535
-2.00561e-05
0.000279901
-2.527e-05
0.000575574
-1.71846e-05
0.000730685
-8.25342e-06
0.000658722
-6.3351e-06
0.00050832
5.4867e-06
0.000489247
6.2718e-06
0.000706507
1.62748e-06
0.000781419
-4.29025e-07
0.000799956
-1.87117e-06
0.000842543
1.01076e-06
0.000834004
1.20844e-06
0.000896388
3.03023e-06
0.000869855
3.37602e-06
0.000852225
2.74326e-06
0.000828102
-3.23344e-06
0.00081678
-4.23423e-06
0.000754
8.15757e-06
0.000546274
1.74089e-05
0.000528109
2.50529e-05
0.00065859
1.72089e-05
0.000697997
-6.6608e-06
0.000642334
5.26512e-06
0.000600367
1.61643e-05
0.000607018
1.32295e-05
0.000521208
1.36718e-05
0.000472904
1.47801e-05
0.000405246
2.18848e-05
0.000174939
3.46568e-05
0.000340378
4.13562e-05
0.000559464
3.47032e-05
0.000327867
3.81414e-05
0.000170854
3.88673e-05
0.000191479
3.47986e-05
0.000378117
4.97448e-05
0.000466466
6.54412e-05
0.000458555
6.88957e-05
0.000421261
5.26559e-05
0.000327434
3.93704e-05
0.000220002
4.31237e-05
6.73197e-05
4.87293e-05
7.15233e-07
5.75202e-05
1.94522e-05
4.54243e-05
0.000167191
3.00572e-05
0.000348597
4.12208e-05
0.000371094
5.72177e-05
0.000358124
7.12411e-05
0.00035801
6.2371e-05
0.000320015
3.64862e-05
0.000166693
2.3043e-05
-9.54646e-06
1.40566e-05
-2.55513e-05
8.4623e-06
7.56234e-05
2.03432e-05
0.000165526
3.02233e-05
0.000194875
3.18356e-05
0.000207598
4.0241e-05
0.000107289
3.9914e-05
2.74816e-05
2.90669e-05
3.59888e-05
4.18693e-06
0.000114528
-1.33259e-05
0.000212776
-1.06406e-05
0.000201829
0.000171224
-2.50316e-06
-8.48688e-05
-1.19315e-05
4.76434e-05
-7.85313e-06
6.85728e-05
3.52994e-06
6.79598e-05
9.57726e-06
0.000174674
7.98199e-06
0.000210132
2.60545e-05
0.000149617
3.46552e-05
0.000127589
2.55021e-05
0.000149481
1.18594e-05
0.000196143
-6.80401e-06
0.000312018
-5.32052e-06
0.00020193
-1.21215e-05
-4.59354e-05
-3.34396e-05
-4.508e-06
-5.67392e-05
0.00022281
-6.74796e-05
0.000361772
-5.9487e-05
0.000378387
-4.07028e-05
0.000341682
-2.86081e-05
0.000364764
-3.29084e-05
0.000312527
-3.87597e-05
0.000118993
-4.21748e-05
2.78021e-05
-4.76922e-05
4.60405e-05
-6.49693e-05
0.000168159
-7.2984e-05
0.000289396
-6.93592e-05
0.000406938
-5.57555e-05
0.000487441
-3.38089e-05
0.000448585
-3.38859e-05
0.000387428
-2.85475e-05
0.000202074
-2.89248e-05
0.000109248
-4.27937e-05
0.000222295
-4.52863e-05
0.000402857
-3.91004e-05
0.000521316
-2.73847e-05
0.00053042
-2.1356e-05
0.000552364
-2.14012e-05
0.000575871
-2.40787e-05
0.000361203
-3.26325e-05
0.00028844
-2.60264e-05
0.000568964
-2.17903e-05
0.000726449
-1.87901e-05
0.000655719
-1.35185e-05
0.000503038
-1.99093e-05
0.000495626
-1.7755e-05
0.000704348
-9.55914e-06
0.000773216
-8.22321e-06
0.000798612
-6.23983e-06
0.000840551
-1.42152e-06
0.000829174
-1.42865e-07
0.000895098
2.38091e-06
0.000867319
7.28423e-06
0.000847312
1.0425e-05
0.000824951
1.47172e-05
0.00081248
1.70591e-05
0.000751649
1.241e-05
0.000550912
8.53597e-06
0.000531973
1.22386e-05
0.000654883
1.89954e-05
0.000691238
2.34098e-05
0.000637915
2.76756e-05
0.000596099
3.86855e-05
0.000596007
4.10927e-05
0.000518796
3.62346e-05
0.000477759
2.98607e-05
0.000411614
2.318e-05
0.000181607
4.24e-05
0.000321152
4.79182e-05
0.000553949
3.73524e-05
0.000338427
3.72643e-05
0.000170932
3.47534e-05
0.00019398
3.32445e-05
0.000379625
5.41792e-05
0.000445554
6.84383e-05
0.000444321
6.73066e-05
0.000422411
6.09953e-05
0.000333748
5.24928e-05
0.0002285
4.72151e-05
7.25879e-05
4.61356e-05
1.78414e-06
4.4069e-05
2.15082e-05
3.39577e-05
0.000177296
2.33452e-05
0.000359198
3.76515e-05
0.000356783
6.05651e-05
0.000335209
6.41074e-05
0.00035446
5.54048e-05
0.000328711
4.17045e-05
0.000180392
2.99475e-05
2.203e-06
2.29727e-05
-1.8586e-05
2.55642e-05
7.30301e-05
2.62078e-05
0.000164884
1.85937e-05
0.00020249
1.49475e-05
0.000211247
2.83097e-05
9.3928e-05
2.77512e-05
2.80368e-05
1.75316e-05
4.62038e-05
-1.54486e-06
0.000133603
-1.33383e-05
0.000224571
-1.52057e-05
0.000203697
0.000156025
-3.47246e-06
-8.14033e-05
-3.10718e-06
4.7276e-05
-2.53144e-06
6.79966e-05
-2.33496e-05
8.87773e-05
-2.8492e-05
0.000179818
-1.69957e-05
0.000198639
1.10288e-05
0.00012159
2.53065e-05
0.000113305
1.03996e-05
0.000164382
-8.60216e-06
0.000215141
-1.50941e-05
0.000318514
-9.84872e-06
0.000196687
-1.98405e-05
-3.59535e-05
-3.56625e-05
1.13021e-05
-5.46018e-05
0.000241748
-6.36344e-05
0.000370804
-5.8344e-05
0.000373097
-3.47986e-05
0.00031814
-1.41848e-05
0.000344145
-2.39321e-05
0.000322264
-3.83047e-05
0.00013336
-4.11317e-05
3.06191e-05
-3.98349e-05
4.47327e-05
-4.54645e-05
0.000173782
-6.14596e-05
0.000305389
-6.80311e-05
0.00041352
-5.46642e-05
0.000474095
-3.14394e-05
0.000425375
-3.18528e-05
0.000387842
-2.99838e-05
0.000200197
-2.61317e-05
0.000105383
-3.68771e-05
0.000233031
-4.91249e-05
0.000415102
-4.17004e-05
0.000513892
-2.32648e-05
0.000511984
-1.84112e-05
0.000547511
-2.05992e-05
0.000578058
-2.09759e-05
0.000361569
-2.23745e-05
0.000289825
-2.4773e-05
0.000571358
-1.70812e-05
0.000718759
-9.70717e-06
0.000648343
-7.52483e-06
0.000500846
1.05678e-06
0.000487033
1.33264e-06
0.000704065
-1.03133e-06
0.000775575
-1.81339e-06
0.000799387
-2.47507e-06
0.000841205
8.50984e-07
0.000825839
7.94778e-07
0.000895144
3.07768e-06
0.000865026
3.61972e-06
0.000846759
3.8345e-06
0.000824728
-6.80294e-07
0.000816989
-1.25996e-06
0.000752222
8.74045e-06
0.000540902
1.49332e-05
0.000525771
1.99129e-05
0.000649899
1.95669e-05
0.000691582
-3.80509e-07
0.000657859
5.60634e-06
0.00059011
2.77515e-05
0.000573861
2.73344e-05
0.00051921
1.74129e-05
0.000487677
1.69767e-05
0.000412045
2.28385e-05
0.000175731
3.56062e-05
0.000308379
4.09364e-05
0.000548622
3.49488e-05
0.00034441
3.82716e-05
0.000167598
3.98915e-05
0.000192352
3.1846e-05
0.00038767
4.63165e-05
0.000431094
7.06525e-05
0.000419998
7.03455e-05
0.000422726
5.48939e-05
0.000349199
4.41556e-05
0.000239234
4.47841e-05
7.19504e-05
4.71834e-05
-6.27621e-07
3.97554e-05
2.89263e-05
1.93145e-05
0.000197732
1.50406e-05
0.000363464
3.54072e-05
0.000336423
5.64982e-05
0.000314124
6.05629e-05
0.000350398
5.59125e-05
0.000333363
4.10693e-05
0.000195237
3.35404e-05
9.72267e-06
2.67908e-05
-1.18441e-05
2.12811e-05
7.85371e-05
2.28094e-05
0.000163356
2.07955e-05
0.000204505
1.67452e-05
0.000215299
1.70058e-05
9.36677e-05
1.42736e-05
3.07655e-05
4.65435e-06
5.5819e-05
-1.26574e-05
0.000150912
-1.30222e-05
0.000224938
-4.96236e-06
0.000195641
0.000151072
-4.63644e-06
-7.67732e-05
-1.60318e-05
5.86692e-05
-1.26469e-05
6.46107e-05
-1.39483e-05
9.00779e-05
-2.33911e-05
0.000189263
-2.15525e-05