/*--------------------------------*- C++ -*----------------------------------*\
| =========                 |                                                 |
| \\      /  F ield         | OpenFOAM: The Open Source CFD Toolbox           |
|  \\    /   O peration     | Version:  2312                                  |
|   \\  /    A nd           | Website:  www.openfoam.com                      |
|    \\/     M anipulation  |                                                 |
\*---------------------------------------------------------------------------*/
FoamFile
{
    version     2.0;
    format      ascii;
    arch        "LSB;label=32;scalar=64";
    class       surfaceScalarField;
    location    "3";
    object      phi.water;
}
// * * * * * * * * * * * * * * * * * * * * * * * * * * * * * * * * * * * * * //

dimensions      [0 3 -1 0 0 0 0];

oriented        oriented;

internalField   nonuniform List<scalar> 
99400
(
2.71787e-05
-3.47186e-05
5.07303e-05
-3.20861e-05
3.41337e-05
7.21131e-06
1.82914e-05
6.34433e-06
-1.10222e-05
1.95907e-05
-2.56202e-05
3.46596e-06
-1.98691e-05
-1.69962e-05
-3.10464e-05
-2.13494e-07
-5.26018e-05
9.70921e-06
-8.35578e-05
1.75227e-05
-0.000118058
1.99911e-05
-0.000102416
-2.91603e-05
-2.87365e-05
-8.63566e-05
6.57367e-05
-0.000105696
0.000113987
-6.51135e-05
8.17136e-05
1.4692e-05
2.6836e-05
3.67924e-05
-5.39959e-06
1.30619e-05
-3.46196e-05
9.81699e-06
-6.50176e-05
9.86955e-06
-5.94739e-05
-2.6782e-05
-1.48591e-05
-6.61743e-05
2.81379e-05
-6.55213e-05
4.88898e-05
-4.47881e-05
6.87267e-05
-4.52446e-05
4.23521e-05
-4.54915e-07
-7.5027e-06
2.12887e-05
-4.60404e-05
9.59976e-06
-7.95734e-05
3.30143e-06
-7.1252e-05
-4.0158e-05
5.40631e-07
-0.000103871
7.47726e-05
-0.000108649
8.19964e-05
-4.35377e-05
4.23392e-05
1.88545e-06
5.37263e-06
-1.48012e-06
-3.13276e-05
-3.62974e-06
-6.79802e-05
-6.79355e-06
-2.72334e-05
-8.65367e-05
5.06415e-05
-0.000126248
4.58423e-05
-4.35144e-05
-5.15629e-07
-3.21032e-06
-2.64813e-05
-2.39677e-05
4.01984e-06
-8.67392e-05
5.21531e-05
-0.000107333
4.11325e-05
-4.80084e-05
2.3029e-05
-4.39878e-05
1.45064e-05
-5.56266e-05
5.13616e-06
-5.74033e-05
3.74346e-06
-6.80167e-05
5.52259e-07
-6.89527e-05
1.42473e-06
-7.3357e-05
-4.13388e-06
-6.32354e-05
-1.07197e-05
-5.95839e-05
-2.28646e-05
-5.2407e-05
-3.21195e-05
-5.16132e-05
3.77803e-06
-9.60555e-05
3.66446e-05
-9.02784e-05
2.21375e-05
-3.94985e-05
1.25793e-06
-2.98471e-05
-1.97857e-05
-2.7744e-05
-3.69105e-05
-2.91066e-05
-5.0625e-05
-3.08372e-05
-7.00155e-05
-2.31534e-05
-8.39887e-05
-2.87446e-05
-5.48985e-05
-7.08092e-05
2.24129e-05
-0.000117074
1.92051e-05
-3.34391e-05
-3.49445e-05
1.71184e-05
-5.93458e-06
-6.39891e-05
5.94606e-05
-9.79447e-05
8.06139e-05
-5.32719e-05
4.73002e-05
2.78317e-06
1.58127e-05
1.76051e-06
-2.60693e-05
1.43175e-05
-6.85971e-05
1.51714e-05
-6.10903e-05
-3.29045e-05
-4.00247e-05
-4.51823e-05
-1.41172e-05
-4.88544e-05
4.3627e-05
-7.88835e-05
8.95153e-05
-6.64811e-05
8.74707e-05
-1.85264e-05
5.35024e-05
1.40763e-05
2.25381e-05
1.34295e-05
-5.57926e-06
9.94452e-06
-5.01367e-05
2.72116e-05
-7.67104e-05
1.04228e-05
-4.39807e-05
-4.73931e-05
2.51473e-05
-8.14516e-05
7.23232e-05
-6.01582e-05
5.6756e-05
1.96351e-06
3.14577e-05
1.19055e-05
6.70462e-06
1.27935e-05
-1.67796e-05
1.12423e-05
-9.28453e-06
-1.86849e-05
1.15026e-05
-3.10556e-05
3.06942e-05
-2.86927e-05
4.50224e-05
-2.38673e-05
3.38378e-05
1.87986e-06
1.53943e-05
1.02196e-05
6.91922e-06
4.43498e-05
-7.06032e-05
7.94569e-05
-5.80815e-05
5.7194e-05
3.77739e-05
-1.14748e-05
8.37021e-05
-6.26252e-05
7.88848e-05
-4.59009e-05
-3.40262e-06
-7.41174e-06
-4.34676e-05
3.2437e-06
1.07647e-06
-4.485e-05
6.69313e-05
-9.99481e-05
8.33785e-05
-0.000121839
5.26278e-05
-9.4037e-05
-4.21355e-05
-1.63686e-05
-0.000148619
5.58107e-05
-0.000162609
0.000107807
-9.80947e-05
0.000114163
2.4307e-05
6.58354e-05
9.9863e-05
-8.31196e-06
0.000104138
-7.54924e-05
9.00988e-05
-0.000101006
5.54598e-05
-7.81632e-05
-2.55623e-05
-2.55382e-05
-9.34913e-05
1.91325e-05
-8.38293e-05
4.5802e-05
-4.42106e-05
8.09324e-05
-5.2233e-05
8.18453e-05
2.60208e-05
2.96525e-06
0.000131038
-7.72634e-05
0.000120922
-0.000109307
6.77007e-05
-8.05475e-05
-3.1811e-05
-7.38124e-06
-0.000141038
6.4048e-05
-0.000140123
9.633e-05
-3.4217e-05
5.88784e-05
8.07196e-05
3.15639e-06
9.81547e-05
-5.15945e-05
9.70386e-05
-8.32925e-05
7.32232e-05
-3.50783e-05
-8.08044e-05
4.8879e-05
-0.000154091
7.07952e-05
-7.37578e-06
-6.81111e-06
0.000133269
-5.24298e-05
8.81045e-05
-1.19039e-05
-5.77632e-05
2.44394e-05
-7.23951e-05
2.23917e-05
2.70611e-05
9.89571e-06
5.03372e-05
5.23642e-06
3.32687e-05
1.30556e-06
3.34377e-05
1.54558e-06
2.03544e-05
-7.12629e-07
2.67993e-05
6.17954e-07
1.86837e-05
6.51803e-07
2.58635e-05
-2.14356e-06
3.02288e-05
-8.34708e-06
3.84608e-05
-1.06916e-05
2.95518e-05
1.0191e-05
-4.09694e-05
3.17883e-05
-3.88996e-05
2.95106e-05
3.38415e-05
1.61577e-05
5.09698e-05
-7.29608e-06
5.90273e-05
-1.66295e-05
4.2386e-05
-8.40807e-06
2.13574e-05
-5.17448e-05
7.4703e-05
-7.98329e-05
5.04723e-05
-3.83212e-05
-6.61091e-05
4.35825e-05
-0.000153094
4.40767e-05
1.14665e-05
-2.59377e-05
0.000125413
-1.99549e-06
-4.86995e-05
6.43608e-05
-0.000127189
9.78202e-05
-5.03319e-05
8.52789e-05
4.76027e-05
1.50703e-05
0.000105749
-6.78531e-05
0.000122631
-8.66402e-05
6.07709e-05
-5.90486e-05
-3.31616e-05
-3.30448e-05
-4.40561e-05
2.6463e-07
-5.62091e-05
4.90857e-05
-0.000102471
0.000102258
-9.53906e-05
0.000123167
-1.69413e-05
9.56482e-05
6.04529e-05
3.55439e-05
8.86145e-05
-3.66017e-05
0.00010027
-8.83655e-05
9.56563e-05
-8.54018e-05
2.27002e-05
-4.04053e-05
-7.43288e-05
1.36835e-05
-0.000118529
7.28197e-05
-0.000103194
9.09115e-05
-3.21406e-06
4.01468e-05
7.43098e-05
-2.64065e-05
9.11364e-05
-5.43609e-05
5.29347e-05
-2.79818e-05
-3.41968e-05
1.07405e-05
-5.765e-05
4.34666e-05
-5.10414e-05
7.49969e-05
-4.48279e-05
8.11573e-05
4.41432e-06
4.81958e-05
5.12346e-05
6.22811e-05
2.35472e-05
-9.22966e-05
3.13909e-05
-6.47723e-05
2.19367e-05
4.61437e-05
5.61537e-06
9.57594e-05
-5.2406e-06
8.69743e-05
-2.64097e-05
1.62875e-05
-5.4779e-05
-1.42115e-05
-2.76398e-05
-2.72832e-05
-1.60403e-05
5.30965e-05
-3.32862e-05
9.71408e-05
-3.9026e-05
5.74383e-05
-3.91664e-05
-4.00098e-05
-5.38039e-06
-0.000181356
4.08385e-05
-0.000212805
5.41679e-05
-0.000110268
4.21682e-05
3.49217e-05
1.24975e-05
0.000120164
-3.22951e-05
0.00014479
-6.50251e-05
0.000122111
-6.57251e-05
5.26865e-05
-4.75465e-05
-4.57059e-05
-2.81833e-05
-0.000111084
1.89927e-06
-0.000112279
3.24327e-05
-7.56141e-05
3.49945e-05
-5.48043e-05
2.29395e-05
3.21767e-05
-1.08668e-05
0.000151101
-6.13614e-05
0.000161902
-6.22436e-05
6.11931e-05
-3.55872e-05
-6.32729e-05
-7.9006e-06
-0.000167076
1.00613e-05
-0.000154152
1.29457e-05
-4.00194e-05
2.52083e-06
7.87569e-05
-1.3037e-05
9.85886e-05
-2.81305e-05
9.70297e-05
-4.24223e-05
7.46349e-05
-1.39559e-05
-0.000112561
3.25212e-06
-0.00016946
-3.72013e-06
-8.48658e-06
-1.38322e-05
0.000121068
-2.1328e-05
7.11223e-05
-3.55198e-06
-8.67627e-05
1.63046e-05
-0.000103354
1.46666e-05
1.30001e-05
1.031e-05
3.12415e-05
7.97082e-06
1.39951e-05
2.4428e-06
1.22537e-05
2.22958e-06
-3.12001e-06
1.90547e-07
4.00891e-06
1.58705e-06
-8.62294e-06
-1.65685e-06
5.46949e-06
-4.98783e-06
1.16656e-05
-1.01079e-05
1.95748e-05
-1.33653e-05
1.3961e-05
8.84055e-06
-8.17954e-05
2.67822e-05
-7.51006e-05
2.28287e-05
1.77248e-05
1.3579e-05
3.52692e-05
1.28746e-05
4.10866e-05
4.26001e-06
2.82319e-05
-9.75401e-06
1.38383e-05
-1.71766e-05
6.59766e-05
-1.82475e-05
4.09076e-05
-1.22995e-05
-7.37803e-05
1.75344e-05
-0.000180317
2.52799e-05
-5.63387e-06
1.06976e-05
0.000130481
2.25489e-05
-6.16182e-05
3.69152e-05
-0.000139797
6.21102e-05
-7.75518e-05
6.43922e-05
3.93133e-05
1.99582e-05
0.000139988
-1.65135e-05
0.000153303
-3.73732e-05
7.43704e-05
-4.45391e-05
-2.60778e-05
-1.48657e-05
-7.3989e-05
2.23374e-05
-9.30936e-05
5.05843e-05
-0.00012816
6.92202e-05
-0.000111975
8.22533e-05
-3.10105e-05
7.69677e-05
6.1975e-05
4.27995e-05
0.00011649
-5.03666e-06
0.000140598
-3.50303e-05
0.000120133
-4.63303e-05
3.19404e-05
-3.02446e-05
-8.98227e-05
2.19775e-06
-0.000151501
2.80157e-05
-0.000127358
4.13465e-05
-1.63912e-05
2.73935e-05
8.48156e-05
8.25806e-06
0.000104716
-3.98937e-06
5.88058e-05
-1.08937e-05
-2.55916e-05
8.41552e-06
-7.56919e-05
3.15123e-05
-7.32434e-05
4.02432e-05
-5.30039e-05
3.55426e-05
8.36215e-06
2.2654e-05
5.89562e-05
8.16798e-05
3.6306e-05
-0.000126692
4.6383e-05
-7.33382e-05
3.56287e-05
5.77393e-05
3.95025e-05
9.0405e-05
4.2618e-05
8.5781e-05
-1.40421e-05
7.64785e-05
-4.34301e-05
1.58044e-05
-2.73515e-05
-4.07146e-05
-2.99385e-06
2.92756e-05
4.14328e-06
8.97787e-05
-2.6019e-05
8.97695e-05
-3.68561e-05
-2.75177e-05
1.14117e-06
-0.000222794
3.97462e-05
-0.000251503
5.91858e-05
-0.000132763
3.33963e-05
6.48476e-05
-6.95832e-06
0.000167399
-3.50352e-05
0.000171605
-5.90009e-05
0.000151919
-7.28147e-05
7.10187e-05
-6.19211e-05
-5.25176e-05
-3.10687e-05
-0.000142266
1.29431e-06
-0.000143872
2.34061e-05
-9.42544e-05
3.92535e-05
-6.76707e-05
2.31342e-05
5.73948e-05
-2.04185e-05
0.000197241
-5.42468e-05
0.000199205
-6.6577e-05
8.10391e-05
-5.01493e-05
-7.08107e-05
-1.24379e-05
-0.000201884
2.47581e-05
-0.000191183
3.01981e-05
-3.53459e-05
6.11706e-06
0.000114794
-2.14796e-05
0.000138793
-4.21336e-05
0.00013188
-4.93021e-05
9.50436e-05
-2.49388e-05
-0.000126565
2.7928e-05
-0.000217924
2.74685e-05
3.54587e-06
-1.2122e-05
0.000178973
-2.35776e-05
0.000101694
-9.85767e-06
-8.48353e-05
1.47507e-05
-0.00011027
1.79666e-05
3.57831e-05
1.11165e-05
6.78293e-05
6.33004e-06
5.1046e-05
7.38194e-07
4.6067e-05
8.08204e-07
2.51678e-05
-3.22671e-07
3.41632e-05
6.25305e-07
1.88605e-05
6.77855e-07
3.26136e-05
-1.13256e-06
4.74613e-05
-6.50234e-06
5.89538e-05
-7.24283e-06
4.42826e-05
1.17173e-05
-8.03331e-05
2.95459e-05
-7.19796e-05
1.07762e-05
6.2861e-05
1.89949e-07
7.46075e-05
2.81644e-05
2.6483e-05
-5.39375e-06
8.77464e-05
-5.23391e-05
8.76173e-05
-3.26236e-05
6.04237e-05
-2.20283e-05
4.36718e-05
-1.04137e-05
-7.53932e-05
3.63811e-05
-0.00022302
3.45056e-05
1.22658e-05
5.50356e-06
0.00016693
1.82369e-05
-6.83108e-05
4.45511e-05
-0.000163345
6.54134e-05
-9.25087e-05
6.11932e-05
5.12191e-05
3.30159e-05
0.00017249
2.07215e-06
0.000190463
-3.26701e-05
0.000117495
-3.43962e-05
-1.94419e-05
-9.61515e-06
-9.49843e-05
1.84557e-05
-0.000118808
5.23008e-05
-0.000161846
8.54744e-05
-0.000145426
9.41669e-05
-3.49158e-05
6.89184e-05
9.08506e-05
3.97076e-05
0.000147904
1.21508e-05
0.000166123
-2.49175e-05
0.00015627
-5.1504e-05
6.25427e-05
-3.33333e-05
-0.000107735
-1.85262e-06
-0.00018325
3.30175e-05
-0.000163236
4.23661e-05
-2.26597e-05
3.21919e-05
9.67584e-05
2.96022e-05
0.000107554
7.11789e-06
8.38843e-05
1.58251e-07
-1.66643e-05
1.84321e-05
-9.32014e-05
3.78162e-05
-9.1647e-05
4.6697e-05
-6.12344e-05
2.14056e-05
3.57221e-05
4.0451e-06
7.89348e-05
8.32168e-05
3.07911e-05
-0.000158048
3.76893e-05
-8.11133e-05
3.82405e-05
5.54309e-05
4.73766e-05
7.92501e-05
4.16567e-05
9.00261e-05
4.17603e-05
7.30012e-05
3.04252e-05
2.30221e-05
3.38017e-06
-1.66833e-05
1.40649e-05
1.44742e-05
2.69601e-05
7.42102e-05
2.09538e-05
9.1942e-05
6.02356e-06
-1.44906e-05
1.13035e-05
-0.000230921
2.17529e-05
-0.000266023
1.13512e-05
-0.000124418
-4.9039e-06
7.71493e-05
-2.66895e-05
0.000186338
-5.17409e-05
0.000188053
-7.15963e-05
0.000161057
-6.92442e-05
6.26943e-05
-4.51165e-05
-8.39714e-05
-3.00093e-05
-0.000163502
-1.30467e-05
-0.000168728
-2.97527e-07
-0.000114421
-8.17233e-06
-6.69097e-05
-1.11258e-05
4.99613e-05
-3.09048e-05
0.000216683
-5.8565e-05
0.000217465
-4.9501e-05
6.1992e-05
-2.38042e-05
-0.000107476
-1.42823e-05
-0.000219957
-1.78291e-05
-0.000197374
-2.02112e-05
-4.5392e-05
-1.53376e-05
9.61008e-05
-2.4429e-05
0.000132903
-2.98811e-05
0.000120319
-2.78166e-05
7.62498e-05
-1.89708e-05
-0.000150733
-2.25739e-05
-0.000228907
-2.85173e-05
-1.41511e-05
-2.08401e-05
0.000149784
-1.76408e-05
7.30908e-05
-7.91556e-06
-0.000118246
-1.71407e-07
-0.000144839
2.97839e-07
3.24712e-06
1.95607e-06
2.79017e-05
1.4921e-06
8.91487e-06
-4.37896e-07
1.03147e-06
9.43617e-07
-2.61846e-05
-2.88736e-07
-1.60714e-05
2.37769e-06
-3.4674e-05
1.80481e-06
-1.51427e-05
-1.59852e-07
4.17699e-06
-1.35425e-06
1.70819e-05
-2.05483e-06
6.23161e-06
8.36373e-06
-0.000121805
1.82353e-05
-0.00011302
2.24353e-05
2.54004e-05
1.80033e-05
4.54741e-05
8.13604e-06
1.02045e-05
1.38353e-05
5.1927e-05
1.72148e-05
5.18561e-05
1.67233e-05
4.30067e-05
2.42509e-05
1.93307e-05
1.45067e-05
-7.71489e-05
1.79611e-05
-0.000238404
3.22213e-05
-2.20274e-05
2.78544e-05
0.000160501
2.84843e-05
-7.99034e-05
3.10624e-05
-0.000175967
5.21862e-05
-0.000123311
6.10826e-05
3.20694e-05
4.3091e-05
0.000181253
2.3153e-05
0.000199063
1.84903e-05
0.000114148
1.05514e-05
-1.89483e-05
6.49796e-06
-9.80332e-05
2.97217e-05
-0.0001482
4.84549e-05
-0.000187961
6.20443e-05
-0.000164507
7.82689e-05
-5.72022e-05
7.28688e-05
8.98436e-05
5.152e-05
0.00016618
2.51844e-05
0.000188288
3.34303e-06
0.000176365
-8.60311e-06
6.91424e-05
-1.48687e-05
-0.000103771
-5.05184e-06
-0.000198106
1.09051e-05
-0.000181957
3.26255e-05
-4.75377e-05
3.83183e-05
8.91265e-05
3.55276e-05
0.000107284
3.4939e-05
8.4658e-05
2.81674e-05
-1.17485e-05
2.40108e-05
-9.20855e-05
2.42613e-05
-9.43205e-05
2.16771e-05
-6.10651e-05
1.77235e-05
3.71261e-05
6.68279e-06
8.94205e-05
8.78239e-05
1.66171e-05
-0.000173337
1.83368e-05
-8.2287e-05
3.28623e-05
4.21116e-05
5.414e-05
5.8049e-05
5.9135e-05
8.58611e-05
5.79075e-05
7.72939e-05
3.45511e-05
4.78938e-05
-1.072e-06
1.89833e-05
9.23423e-06
4.83585e-06
4.00419e-05
4.45037e-05
3.45375e-05
0.000100354
1.35608e-05
7.10657e-06
1.60873e-05
-0.000232375
1.39881e-05
-0.000265359
-1.07253e-05
-9.81221e-05
-3.64992e-05
0.00010727
-4.41599e-05
0.000195425
-4.93751e-05
0.000193332
-5.58608e-05
0.000168914
-6.6503e-05
7.65229e-05
-5.86225e-05
-8.87687e-05
-3.64677e-05
-0.000184883
-1.65826e-05
-0.000186899
-2.45901e-06
-0.000126381
-1.69956e-05
-5.01226e-05
-4.02941e-05
8.24169e-05
-4.1706e-05
0.000219263
-4.27872e-05
0.000221402
-4.2975e-05
6.81012e-05
-3.38241e-05
-0.000111566
-1.60439e-05
-0.000235179
-1.86329e-06
-0.000209316
-1.0743e-05
-3.01885e-05
-2.33159e-05
0.000116558
-2.6758e-05
0.000145203
-2.62525e-05
0.00012874
-2.71841e-05
8.76595e-05
-2.27659e-05
-0.000148425
6.64326e-06
-0.000253039
-3.11242e-06
1.3757e-05
-1.70312e-05
0.000176412
-9.77987e-06
8.47621e-05
-5.83229e-06
-0.000105108
1.28071e-05
-0.000147055
1.5045e-05
2.43665e-05
8.72337e-06
6.00998e-05
4.86344e-06
4.23765e-05
-5.33101e-07
4.15968e-05
2.54942e-07
9.81247e-06
1.84008e-06
1.86445e-05
3.21286e-06
4.55428e-06
1.38908e-06
2.24476e-05
-1.14052e-06
3.97224e-05
-8.00737e-06
5.46134e-05
-9.01156e-06
3.5376e-05
9.07132e-06
-0.000116785
2.44921e-05
-0.00010868
1.65388e-05
5.54677e-05
1.92388e-08
8.45755e-05
1.51387e-05
1.34335e-05
8.69868e-06
7.25731e-05
-3.73855e-05
0.000114789
-1.48356e-05
2.69125e-05
1.19192e-05
2.58742e-06
8.13558e-06
-6.83944e-05
2.82298e-05
-0.000254324
2.99988e-05
-1.20446e-05
2.44112e-05
0.00017121
2.7363e-05
-7.79364e-05
3.81903e-05
-0.000183506
4.85626e-05
-0.000129691
4.64172e-05
4.09218e-05
4.65072e-05
0.000185532
4.87664e-05
0.000201068
2.98759e-05
0.000137328
1.02713e-05
4.46455e-06
1.26345e-05
-9.78202e-05
3.09711e-05
-0.000165504
5.26544e-05
-0.000208419
7.17474e-05
-0.000183241
7.44885e-05
-5.72363e-05
6.02127e-05
0.000106539
4.8398e-05
0.00018347
4.18183e-05
0.00019442
3.46641e-05
0.000184393
6.41599e-06
0.00010155
-9.36729e-06
-8.83364e-05
2.10489e-06
-0.000208359
1.15985e-05
-0.000192263
1.82194e-05
-5.13391e-05
3.05469e-05
7.71458e-05
4.05404e-05
9.67543e-05
4.19894e-05
8.21629e-05
3.35584e-05
-2.22763e-06
3.07958e-05
-8.90218e-05
3.06537e-05
-9.40272e-05
2.37377e-05
-5.36334e-05
1.3156e-05
4.99606e-05
8.203e-06
9.3458e-05
9.90028e-05
1.40372e-06
-0.000176108
-9.98253e-07
-8.0551e-05
2.75705e-05
1.3665e-05
5.00898e-05
3.53016e-05
5.39186e-05
8.1369e-05
4.75034e-05
8.33367e-05
3.78628e-05
5.63111e-05
3.1143e-05
2.36931e-05
3.26172e-05
1.52189e-06
4.48871e-05
3.10564e-05
4.17952e-05
0.00010276
2.72081e-05
2.2313e-05
1.69048e-05
-0.000224055
-3.97603e-06
-0.000246721
-3.72195e-05
-6.55851e-05
-5.11093e-05
0.000118361
-5.57603e-05
0.000200907
-5.65469e-05
0.000195195
-6.14736e-05
0.000173931
-6.25584e-05
7.46072e-05
-4.85718e-05
-0.000106226
-3.83326e-05
-0.000197183
-2.87074e-05
-0.000199112
-3.01932e-05
-0.000128967
-4.60159e-05
-3.7276e-05
-4.92789e-05
7.97495e-05
-4.79941e-05
0.000211203
-4.41921e-05
0.000215632
-3.73568e-05
5.71398e-05
-2.32754e-05
-0.000130885
-2.05655e-05
-0.000242098
-3.44635e-05
-0.000199946
-3.78353e-05
-3.42825e-05
-3.13144e-05
0.000104564
-2.99287e-05
0.00013718
-2.35311e-05
0.000116184
-2.05594e-05
7.68874e-05
-2.30683e-05
-0.000155766
-3.27685e-05
-0.0002505
-3.36268e-05
-2.79048e-06
-2.33707e-05
0.000158399
-1.78634e-05
6.60391e-05
-1.15292e-05
-0.000126006
-9.99967e-06
-0.000160975
-8.60701e-06
-6.40775e-07
-3.68402e-06
2.97996e-05
-3.79162e-06
1.19091e-05
-3.19024e-06
7.28116e-06
3.43105e-07
-3.00553e-05
-7.39995e-07
-1.57438e-05
2.27736e-06
-3.91904e-05
4.8799e-06
-1.57528e-05
4.54768e-06
5.82776e-06
6.36526e-06
2.14138e-05
6.93405e-06
5.29681e-06
9.11534e-06
-0.000139084
1.34843e-05
-0.000128938
2.0102e-05
2.81726e-05
2.26727e-05
6.13798e-05
1.41559e-05
2.05757e-06
1.43962e-05
5.60319e-05
3.3291e-05
7.84396e-05
3.98211e-05
1.15947e-05
3.69678e-05
-4.6729e-06
2.47799e-05
-6.3937e-05
1.85248e-05
-0.000253783
3.77499e-05
-4.41861e-05
4.00816e-05
0.000165068
3.28979e-05
-7.69128e-05
3.23757e-05
-0.00018763
4.60557e-05
-0.000148256
5.17138e-05
3.01278e-05
5.23245e-05
0.000181876
5.25408e-05
0.000200261
5.60277e-05
0.000128555
4.95833e-05
6.09914e-06
3.22903e-05
-8.37303e-05
3.97571e-05
-0.000175418
5.00352e-05
-0.000220908
6.12859e-05
-0.000196201
7.07598e-05
-6.94839e-05
6.10726e-05
0.000114861
5.21734e-05
0.000186853
4.95526e-05
0.000194987
4.81916e-05
0.000184243
3.6783e-05
0.000112234
1.37823e-05
-6.64412e-05
3.80075e-06
-0.000200245
3.74815e-06
-0.000193288
1.69879e-05
-6.58748e-05
3.38896e-05
5.96358e-05
4.48302e-05
8.65313e-05
4.54857e-05
8.19713e-05
4.00695e-05
2.45107e-06
3.5525e-05
-8.58809e-05
3.16145e-05
-9.12033e-05
2.18892e-05
-4.48405e-05
1.17843e-05
6.03349e-05
1.42928e-06
0.000104097
9.84884e-05
-8.2798e-08
-0.00017729
-1.25857e-05
-6.77571e-05
1.5236e-05
-1.28925e-05
4.84547e-05
3.78762e-06
4.83587e-05
8.27989e-05
4.4167e-05
8.70521e-05
3.97089e-05
6.09649e-05
3.6268e-05
2.74772e-05
3.18707e-05
6.27184e-06
3.10068e-05
3.3594e-05
2.51157e-05
0.00011102
1.29916e-05
3.48363e-05
6.56743e-06
-0.000218686
-9.11648e-06
-0.0002311
-4.31511e-05
-3.09742e-05
-6.06044e-05
0.000138284
-5.93419e-05
0.000199151
-5.41205e-05
0.000193374
-5.39705e-05
0.000178269
-5.54312e-05
7.59317e-05
-4.6643e-05
-0.000113558
-3.8804e-05
-0.000203525
-3.2117e-05
-0.000204193
-2.95254e-05
-0.000128299
-4.28272e-05
-2.26659e-05
-6.44883e-05
0.000103495
-5.92959e-05
0.000216147
-3.78371e-05
0.000198234
-3.40688e-05
5.66543e-05
-2.87499e-05
-0.000133469
-2.0107e-05
-0.000249457
-2.12214e-05
-0.000196394
-3.46785e-05
-1.59617e-05
-3.96095e-05
0.000113199
-2.69365e-05
0.000128914
-1.73457e-05
0.000111088
-2.04231e-05
8.60956e-05
-2.17611e-05
-0.000149691
-1.20124e-05
-0.000256865
-2.14307e-05
2.23469e-05
-1.66312e-05
0.000158272
-5.52371e-06
6.3764e-05
-5.06566e-06
-0.000117008
1.02326e-05
-0.000166297
1.13144e-05
1.74736e-05
5.08556e-06
5.54897e-05
2.31737e-06
3.853e-05
-1.22664e-06
3.79484e-05
5.51809e-07
1.88119e-06
1.79187e-06
1.49279e-05
3.61806e-06
-8.46252e-06
2.59524e-06
1.64742e-05
9.71911e-07
2.81424e-05
-6.145e-06
4.54466e-05
-7.87646e-06
2.31832e-05
7.29518e-06
-0.000139903
1.97339e-05
-0.000125831
2.50335e-05
3.80733e-05
1.01222e-05
9.13306e-05
-2.5855e-06
3.3674e-05
6.81562e-06
5.99248e-05
-1.17292e-05
0.000108947
-5.48921e-06
1.31286e-05
1.39305e-05
-1.65432e-05
1.37057e-05
-5.87852e-05
2.33513e-05
-0.000261222
3.13521e-05
-4.25658e-05
3.63112e-05
0.000162825
3.22941e-05
-6.97634e-05
3.70513e-05
-0.000190715
4.11748e-05
-0.000150356
3.75323e-05
3.80264e-05
4.95703e-05
0.000171725
6.60677e-05
0.000182226
6.6976e-05
0.000132361
4.7932e-05
2.8254e-05
3.61948e-05
-7.09815e-05
4.20569e-05
-0.000179269
5.06764e-05
-0.00022803
5.35425e-05
-0.000197814
5.31822e-05
-6.73994e-05
5.24289e-05
0.000113845
5.35795e-05
0.000185211
5.84238e-05
0.000196267
5.58964e-05
0.000191767
4.34122e-05
0.000126615
2.2657e-05
-4.38645e-05
1.41648e-05
-0.00019316
1.03746e-05
-0.000189022
1.6953e-05
-7.17391e-05
3.07994e-05
4.69965e-05
3.88822e-05
7.98847e-05
3.72853e-05
8.40414e-05
3.75081e-05
2.93887e-06
3.76392e-05
-8.6158e-05
3.56502e-05
-9.00052e-05
2.37544e-05
-3.31639e-05
3.38566e-06
7.89582e-05
-4.7857e-06
0.000113797
9.23787e-05
-1.94207e-06
-0.000175779
-7.59024e-06
-6.14037e-05
4.67885e-06
-2.4189e-05
1.6104e-05
-7.49426e-06
1.72796e-05
8.12751e-05
1.66742e-05
8.72773e-05
2.33758e-05
5.43385e-05
3.76609e-05
1.30727e-05
4.22546e-05
3.74871e-07
3.07326e-05
4.26527e-05
1.48568e-05
0.000128351
9.59451e-06
3.59062e-05
-4.47523e-07
-0.000210637
-2.64801e-05
-0.000207296
-5.74041e-05
-1.08609e-06
-6.70449e-05
0.000150407
-6.31158e-05
0.000195
-5.0768e-05
0.000177472
-4.92771e-05
0.000175541
-5.04555e-05
7.59382e-05
-4.48792e-05
-0.000120286
-3.95266e-05
-0.000211972
-3.7566e-05
-0.000209228
-5.06087e-05
-0.000117774
-6.21316e-05
-1.30264e-05
-6.21357e-05
0.000101574
-5.76431e-05
0.000210193
-4.1845e-05
0.000179382
-3.53129e-05
4.83235e-05
-2.58901e-05
-0.000145381
-2.59364e-05
-0.000251171
-4.30263e-05
-0.000182767
-4.70901e-05
-1.67877e-05
-3.97177e-05
0.000103674
-2.91249e-05
0.000115847
-2.04178e-05
9.94916e-05
-1.99869e-05
8.17485e-05
-2.40546e-05
-0.000150462
-3.39859e-05
-0.000250002
-2.98108e-05
5.63697e-06
-2.33308e-05
0.000147942
-1.87297e-05
5.16867e-05
-1.24662e-05
-0.000131723
-1.68835e-05
-0.000171875
-1.4819e-05
-2.5889e-06
-7.40355e-06
2.96058e-05
-7.14441e-06
1.48346e-05
-5.00581e-06
1.2672e-05
-5.84125e-07
-3.34865e-05
-1.05989e-06
-1.37127e-05
1.7536e-06
-3.81321e-05
6.87865e-06
-1.60178e-05
8.70523e-06
-2.4648e-09
1.13175e-05
2.08108e-05
1.31695e-05
-7.3248e-07
1.15529e-05
-0.000148379
1.09602e-05
-0.000137699
1.60719e-05
1.9941e-05
2.25788e-05
7.17014e-05
1.9747e-05
2.01432e-05
2.17219e-05
4.8012e-05
4.21091e-05
8.09823e-05
4.54506e-05
3.25261e-06
3.75252e-05
-1.50551e-05
2.80111e-05
-5.48746e-05
2.06006e-05
-0.000256593
4.1218e-05
-7.13503e-05
4.64145e-05
0.00015611
3.62675e-05
-6.27167e-05
3.521e-05
-0.000191644
4.10893e-05
-0.000158447
4.09046e-05
3.54857e-05
5.09433e-05
0.000161063
6.62114e-05
0.00016655
7.06806e-05
0.00013033
6.21518e-05
3.447e-05
4.54813e-05
-5.60394e-05
4.49554e-05
-0.000182018
4.90881e-05
-0.000235161
5.05479e-05
-0.000201956
4.65627e-05
-6.47406e-05
4.52802e-05
0.00011491
5.06692e-05
0.000183077
5.98963e-05
0.000185576
6.37197e-05
0.000185854
5.95182e-05
0.000130565
3.56598e-05
-2.04558e-05
1.80192e-05
-0.000175871
1.00538e-05
-0.00018198
1.54935e-05
-7.73486e-05
2.62713e-05
3.52753e-05
3.13217e-05
7.29945e-05
3.31619e-05
8.11505e-05
4.08572e-05
-4.96772e-06
4.11092e-05
-8.61503e-05
3.31369e-05
-8.15694e-05
1.1354e-05
-1.22306e-05
-5.62908e-06
9.48668e-05
-1.77288e-06
0.0001092
9.22463e-05
-4.29992e-06
-0.000171464
-1.41069e-05
-5.17002e-05
-9.69773e-06
-2.81287e-05
6.41138e-06
-2.39927e-05
2.00779e-05
6.64658e-05
1.60754e-05
9.2127e-05
2.48129e-05
4.66758e-05
2.96592e-05
9.47146e-06
2.12952e-05
9.15776e-06
2.18877e-05
4.1999e-05
6.93849e-06
0.000140112
-6.64913e-06
5.2085e-05
-8.90985e-06
-0.000209635
-3.00279e-05
-0.000187021
-6.01639e-05
2.87612e-05
-7.08914e-05
0.000161347
-6.36547e-05
0.000188801
-4.4944e-05
0.000157476
-3.74397e-05
0.000166141
-4.42183e-05
8.55091e-05
-4.70283e-05
-0.000117342
-4.13723e-05
-0.000217204
-3.76537e-05
-0.000212632
-4.19152e-05
-0.000111858
-5.9828e-05
6.01063e-06
-7.38644e-05
0.000116111
-5.76417e-05
0.000189884
-2.49807e-05
0.000147651
-2.55787e-05
5.07173e-05
-2.85759e-05
-0.000141532
-2.34697e-05
-0.000255586
-3.33125e-05
-0.000172617
-4.7708e-05
1.32627e-06
-4.35437e-05
0.000101309
-2.36575e-05
9.82217e-05
-1.59786e-05
9.43227e-05
-2.00217e-05
8.91179e-05
-2.13372e-05
-0.000146448
-2.00703e-05
-0.000249373
-2.53423e-05
2.39605e-05
-1.68251e-05
0.000141412
-7.55561e-06
4.81498e-05
-6.08035e-06
-0.00012712
6.18654e-06
-0.000177401
7.05193e-06
1.17453e-05
1.83771e-06
4.45989e-05
-2.66452e-07
3.14484e-05
-1.79203e-06
3.72682e-05
1.09313e-06
-1.10971e-05
1.34632e-06
1.25349e-05
3.08552e-06
-1.23581e-05
3.27034e-06
1.15638e-05
2.6406e-06
2.17145e-05
-3.78239e-06
4.81848e-05
-4.79445e-06
2.01338e-05
8.01626e-06
-0.000150572
1.7404e-05
-0.000138042
2.54553e-05
2.21648e-05
1.71257e-05
8.8922e-05
-8.29135e-06
6.11158e-05
4.52788e-06
4.24832e-05
1.61075e-05
7.49282e-05
1.25426e-05
1.31262e-05
1.29265e-05
-1.02349e-05
1.46164e-05
-5.21702e-05
2.17588e-05
-0.000262409
3.44168e-05
-7.7806e-05
4.17327e-05
0.000150594
3.49349e-05
-5.4371e-05
3.81691e-05
-0.000194063
3.80561e-05
-0.00015754
3.37966e-05
4.23295e-05
4.96365e-05
0.000144977
6.61477e-05
0.00015349
7.03269e-05
0.000123418
5.4e-05
5.33814e-05
4.05169e-05
-4.19975e-05
4.36313e-05
-0.000184724
4.81667e-05
-0.000239941
5.66755e-05
-0.00020964
4.32152e-05
-5.10338e-05
2.7846e-05
0.000138832
4.05612e-05
0.00016871
5.77447e-05
0.000164979
7.30041e-05
0.000168813
6.46612e-05
0.000139567
3.88019e-05
5.27514e-06
2.45476e-05
-0.000162987
1.44826e-05
-0.000173421
7.76567e-06
-7.03887e-05
1.94232e-05
2.34146e-05
2.95243e-05
6.35461e-05
3.155e-05
7.90871e-05
4.01839e-05
-1.38716e-05
3.98006e-05
-8.49119e-05
2.81241e-05
-7.00617e-05
2.29873e-06
1.34334e-05
-1.48732e-05
0.000114382
-1.13679e-05
0.000105463
8.01105e-05
-2.83197e-06
-0.000169109
-1.2379e-05
-4.37572e-05
-9.3734e-06
-3.07997e-05
1.0808e-06
-3.47084e-05
7.83374e-06
6.00532e-05
7.04942e-06
9.24747e-05
2.60229e-05
2.6098e-05
3.53141e-05
-4.45725e-07
2.53631e-05
1.79509e-05
1.07028e-05
5.80065e-05
-8.17758e-06
0.000159804
-6.31837e-06
4.96314e-05
-1.38511e-05
-0.000203037
-3.53987e-05
-0.0001651
-5.7696e-05
5.04983e-05
-6.81147e-05
0.000168261
-5.94182e-05
0.000180068
-3.98858e-05
0.000141946
-2.67131e-05
0.00015367
-3.07119e-05
9.0564e-05
-3.77491e-05
-0.000110297
-4.219e-05
-0.000211772
-4.87607e-05
-0.000205129
-6.74866e-05
-9.5789e-05
-7.51746e-05
1.22768e-05
-7.01156e-05
0.000113539
-5.57414e-05
0.000177351
-3.33824e-05
0.000127988
-3.36104e-05
5.00404e-05
-2.84213e-05
-0.000147911
-2.94973e-05
-0.000255527
-4.39176e-05
-0.000157216
-4.58923e-05
-6.38543e-07
-3.92291e-05
9.38375e-05
-2.73905e-05
8.54471e-05
-2.13681e-05
8.6848e-05
-2.11997e-05
8.69503e-05
-2.4138e-05
-0.000146114
-3.34719e-05
-0.000242142
-2.61908e-05
7.14417e-06
-2.18972e-05
0.000135263
-1.92198e-05
4.06716e-05
-1.39201e-05
-0.000138207
-2.14344e-05
-0.000175751
-1.92389e-05
-4.76641e-06
-1.03054e-05
2.28293e-05
-8.73944e-06
1.2288e-05
-6.50287e-06
1.5706e-05
-1.57483e-06
-3.56701e-05
-1.67486e-07
-1.14872e-05
2.35196e-06
-3.85231e-05
7.51209e-06
-1.68186e-05
1.09583e-05
-1.47979e-06
1.58523e-05
2.6379e-05
1.83376e-05
2.11936e-06
1.26495e-05
-0.000153487
7.81756e-06
-0.000139552
1.1402e-05
9.45035e-06
1.91278e-05
7.31908e-05
2.48324e-05
4.34191e-05
2.90309e-05
3.25941e-05
4.04831e-05
5.96257e-05
4.29349e-05
5.51485e-06
3.76035e-05
-9.55856e-06
3.09203e-05
-4.98433e-05
2.33117e-05
-0.000256451
4.26856e-05
-0.000102243
4.86214e-05
0.000144156
3.7638e-05
-4.49175e-05
3.71696e-05
-0.00019454
3.39098e-05
-0.000155416
3.22345e-05
4.26226e-05
5.41289e-05
0.00012359
6.92312e-05
0.000136424
6.80187e-05
0.000122974
6.22245e-05
5.46092e-05
5.38423e-05
-3.44508e-05
4.75021e-05
-0.000178024
4.57075e-05
-0.000237226
4.27776e-05
-0.000206612
3.22685e-05
-4.16286e-05
2.1631e-05
0.000147999
3.65774e-05
0.000153124
6.07187e-05
0.00014306
6.46134e-05
0.000169022
5.61747e-05
0.000148774
4.3301e-05
1.75046e-05
3.15394e-05
-0.000152306
2.433e-05
-0.000166526
2.63313e-05
-7.25937e-05
2.62626e-05
2.486e-05
1.77323e-05
7.27777e-05
1.34579e-05
8.30708e-05
2.66859e-05
-2.77411e-05
2.62764e-05
-8.53893e-05
1.57175e-05
-6.12436e-05
-3.18243e-06
3.33748e-05
-1.41508e-05
0.000125511
-1.56651e-05
0.000107207
6.39305e-05
-3.77935e-06
-0.000165281
-2.77141e-06
-4.50578e-05
-3.07631e-06
-3.09131e-05
-2.61371e-05
-1.11515e-05
-3.24672e-05
6.65623e-05
-2.01895e-05
7.97073e-05
8.99248e-06
-2.77492e-06
2.43096e-05
-1.59561e-05
8.56215e-06
3.34409e-05
-1.15211e-05
7.91661e-05
-1.63986e-05
0.000168867
-1.08895e-05
4.27879e-05
-2.14715e-05
-0.000190901
-3.68713e-05
-0.000148702
-5.50095e-05
7.05805e-05
-6.3733e-05
0.000176216
-5.80495e-05
0.00017495
-3.35597e-05
0.000118672
-1.17198e-05
0.000132737
-2.17718e-05
0.000101159
-3.75599e-05
-9.53509e-05
-4.09951e-05
-0.000210295
-3.97316e-05
-0.00020732
-4.53011e-05
-9.06394e-05
-6.15774e-05
2.96212e-05
-6.82795e-05
0.000121405
-5.44587e-05
0.000165492
-3.09476e-05
0.000102522
-3.14378e-05
5.1392e-05
-2.99697e-05
-0.000148963
-2.62027e-05
-0.000258849
-3.70777e-05
-0.000146807
-4.96467e-05
1.51793e-05
-4.19087e-05
8.70249e-05
-2.28743e-05
6.73207e-05
-1.81498e-05
8.32881e-05
-2.03775e-05
9.09262e-05
-2.07345e-05
-0.00014411
-2.20828e-05
-0.000239577
-2.45884e-05
1.72968e-05
-1.67213e-05
0.000129236
-9.1657e-06
3.71018e-05
-7.27677e-06
-0.000136114
1.84647e-06
-0.000180228
2.14591e-06
7.08917e-06
-7.43929e-07
3.80275e-05
-1.55353e-06
2.80133e-05
-2.31575e-06
3.26793e-05
9.5946e-07
-1.76837e-05
8.64527e-07
9.99316e-06
3.11135e-06
-1.80382e-05
3.44193e-06
3.50142e-06
3.60174e-06
1.64792e-05
-1.37041e-06
4.63914e-05
-2.00856e-06
1.9892e-05
8.56424e-06
-0.000157659
1.49952e-05
-0.000140237
2.00587e-05
1.22037e-05
1.96066e-05
7.90444e-05
-1.5291e-06
7.53432e-05
4.53066e-06
3.16459e-05
2.7775e-05
3.95341e-05
2.71737e-05
1.12718e-05
1.66158e-05
4.5628e-06
1.65739e-05
-4.60413e-05
2.27923e-05
-0.000261663
3.52281e-05
-0.000111173
4.07226e-05
0.000139703
3.48856e-05
-3.83866e-05
3.82399e-05
-0.000197452
3.97137e-05
-0.000156756
3.12884e-05
5.23541e-05
4.57869e-05
0.000111096
7.07532e-05
0.00011184
7.08617e-05
0.000126479
5.51311e-05
7.19288e-05
4.42605e-05
-2.3305e-05
4.46785e-05
-0.000180202
4.69119e-05
-0.000240637
3.83097e-05
-0.000199952
1.70221e-05
-1.86459e-05
1.34329e-05
0.000147422
3.48534e-05
0.000135521
5.64451e-05
0.000122735