/*--------------------------------*- C++ -*----------------------------------*\
| =========                 |                                                 |
| \\      /  F ield         | OpenFOAM: The Open Source CFD Toolbox           |
|  \\    /   O peration     | Version:  2312                                  |
|   \\  /    A nd           | Website:  www.openfoam.com                      |
|    \\/     M anipulation  |                                                 |
\*---------------------------------------------------------------------------*/
FoamFile
{
    version     2.0;
    format      ascii;
    arch        "LSB;label=32;scalar=64";
    class       surfaceScalarField;
    location    "3";
    object      phi.air;
}
// * * * * * * * * * * * * * * * * * * * * * * * * * * * * * * * * * * * * * //

dimensions      [0 3 -1 0 0 0 0];

oriented        oriented;

internalField   nonuniform List<scalar> 
99400
(
2.1096e-06
0.000519288
1.35018e-05
0.000547381
5.67704e-06
0.000595844
2.03662e-05
0.000621312
1.17768e-05
0.000663793
-3.0066e-06
0.000677015
-7.15963e-06
0.000702358
-1.85265e-05
0.000740688
-1.89196e-05
0.000783724
-2.12103e-05
0.000831285
-4.71446e-05
0.000868499
-5.06142e-05
0.000877989
-1.6391e-05
0.000900811
3.03336e-05
0.000932919
5.17008e-05
0.00100695
1.72612e-05
0.00108182
-7.10416e-06
0.00116232
-4.74759e-06
0.00120486
-1.12498e-05
0.00125327
-2.74402e-05
0.00130515
-2.33144e-05
0.0013404
-2.2187e-06
0.00139235
1.66327e-05
0.00145769
2.31514e-05
0.00153497
3.22293e-05
0.00161182
1.24187e-05
0.00170686
-8.42458e-06
0.00184135
-1.73661e-05
0.00191221
-3.77608e-05
0.00197749
-3.27987e-05
0.00203794
2.15186e-06
0.00211992
4.03625e-05
0.00221859
4.03942e-05
0.00232558
1.79734e-05
0.00249803
1.99802e-06
0.00261882
-1.43249e-05
0.00274011
-3.40807e-05
0.00285873
-1.27051e-05
0.00295126
3.07683e-05
0.00309761
2.39979e-05
0.00312981
-2.18873e-06
0.00345802
-1.45262e-05
0.00355002
3.26663e-06
0.00370937
3.17251e-05
0.0038781
2.47132e-05
0.00384986
1.38884e-05
0.00403667
9.15786e-06
0.00414847
3.22329e-06
0.00431928
2.42806e-06
0.00450036
2.05281e-07
0.0046825
8.4068e-07
0.00470499
-3.03214e-06
0.00446074
-6.86532e-06
0.00428063
-1.41144e-05
0.00417196
-2.03349e-05
0.00395928
1.66356e-06
0.00403151
2.18243e-05
0.00384692
1.28519e-05
0.00356047
1.12174e-06
0.00344117
-1.14866e-05
0.00327536
-2.09718e-05
0.00314673
-2.93005e-05
0.00299981
-3.81108e-05
0.00293737
-4.60259e-05
0.00280391
-2.96683e-05
0.00267314
1.40471e-05
0.00256423
1.16634e-05
0.00240707
-1.67837e-05
0.00240598
-4.69825e-06
0.00222562
2.60806e-05
0.00212004
3.85704e-05
0.00203594
1.76092e-05
0.00197266
8.28432e-06
0.00190117
-3.15446e-06
0.00181894
-2.90099e-05
0.00173373
-2.95796e-05
0.00161005
-2.17145e-05
0.00153521
-1.10202e-05
0.00146435
1.51669e-05
0.00138213
3.83981e-05
0.00132702
3.56889e-05
0.00127951
1.82186e-05
0.00125054
9.64537e-06
0.00120451
9.47895e-06
0.00114289
-8.94146e-06
0.00110836
-3.49782e-05
0.00103205
-1.95857e-05
0.000964926
1.18846e-05
0.000897219
3.42902e-05
0.000867389
1.63726e-05
0.000850755
8.28316e-06
0.000825483
1.08068e-05
0.000786742
4.52368e-06
0.00075392
1.07683e-07
0.000700536
2.69398e-06
0.000660907
3.84348e-06
0.000629949
1.06011e-05
0.000605076
3.21922e-06
0.000587264
-1.0368e-06
0.000568399
0.000539343
3.29701e-05
0.00058266
6.0098e-05
0.000617093
4.18937e-05
0.000692585
1.32228e-05
0.000731717
-2.49513e-05
0.000776293
-2.08798e-05
0.000782033
-2.80092e-06
0.000796913
-5.61903e-06
0.000847621
-3.16638e-05
0.000916698
-5.98007e-05
0.000967113
-9.24397e-05
0.00101544
-8.79029e-05
0.00102057
-2.28188e-05
0.00101177
5.40773e-05
0.00105666
9.20105e-05
0.00113827
6.29901e-05
0.00126702
2.57877e-05
0.00134693
1.06797e-09
0.00139513
-3.56721e-05
0.00145708
-6.05643e-05
0.00150518
-5.09096e-05
0.00153244
-1.30028e-05
0.0015938
2.03682e-05
0.00167477
3.52098e-05
0.00176151
5.45387e-05
0.00185178
4.09496e-05
0.00195797
-4.07379e-06
0.00208118
-3.91834e-05
0.00219191
-6.82401e-05
0.00226435
-5.73129e-05
0.00232395
-2.63261e-06
0.00243902
5.37935e-05
0.00255808
6.44037e-05
0.00266064
3.25809e-05
0.00283848
1.4418e-06
0.0029705
-2.90582e-05
0.00310738
-5.56956e-05
0.00325684
-2.38829e-05
0.003372
3.82804e-05
0.00355345
4.18025e-05
0.00359312
-3.928e-06
0.0038937
-2.82756e-05
0.00397246
-2.62582e-06
0.00420211
3.03797e-05
0.0044081
2.56246e-05
0.00443677
1.32842e-05
0.00460746
8.56652e-06
0.00478225
2.69762e-06
0.00497901
2.20324e-06
0.00522242
4.06744e-09
0.00544144
7.22972e-07
0.0054599
-2.35808e-06
0.00518544
-5.94449e-06
0.00496215
-1.36658e-05
0.00478991
-1.82924e-05
0.00457385
4.45213e-06
0.00454939
2.5686e-05
0.00434215
1.83711e-05
0.00405205
5.20647e-06
0.0038714
-1.04092e-05
0.00370316
-2.02378e-05
0.0035388
-2.34115e-05
0.0033854
-4.42974e-05
0.00330686
-6.06451e-05
0.00319504
-3.49913e-05
0.00306747
2.66674e-05
0.00293863
2.54688e-05
0.00273605
-2.34779e-05
0.00276339
-4.88507e-06
0.00256885
4.53875e-05
0.00243656
6.51078e-05
0.00233497
4.12904e-05
0.00226054
9.34983e-06
0.00217351
-2.69813e-05
0.00211662
-5.52456e-05
0.00198874
-4.46765e-05
0.00185554
-2.96783e-05
0.00176516
-9.00263e-06
0.00168018
3.25155e-05
0.00158852
7.0992e-05
0.00152005
7.57878e-05
0.00147207
4.42125e-05
0.00144676
1.00601e-05
0.00137756
-1.08013e-05
0.00131819
-4.49847e-05
0.00127393
-6.39281e-05
0.00119893
-3.69634e-05
0.00109392
1.5361e-05
0.00101266
5.85003e-05
0.000980553
5.3718e-05
0.000987059
2.38507e-05
0.000962074
-6.99438e-06
0.000921677
-3.09612e-05
0.000862365
-1.83523e-05
0.000804868
5.67438e-06
0.000749562
2.63376e-05
0.000716551
4.26551e-05
0.000685056
3.94586e-05
0.000679684
1.64919e-05
0.000657478
0.000632324
2.90782e-05
0.000625754
4.48944e-05
0.000675893
2.54549e-05
0.000791643
1.10986e-05
0.000864645
-1.38589e-05
0.00089755
-2.23946e-05
0.00088758
-2.75096e-05
0.000896437
-1.59169e-05
0.000942402
-2.14093e-05
0.00103556
-4.29263e-05
0.00112036
-6.6521e-05
0.00114064
-6.98578e-05
0.00112299
-1.69843e-05
0.00107583
4.5785e-05
0.00111604
7.26656e-05
0.00125161
5.13598e-05
0.00142538
1.02554e-05
0.00156209
-1.84413e-05
0.00162716
-4.52108e-05
0.00167102
-6.20403e-05
0.00171875
-4.81554e-05
0.00172963
-1.87955e-05
0.00176757
1.26351e-05
0.00185664
3.56287e-05
0.00197457
4.61848e-05
0.00208253
3.00084e-05
0.00223995
-9.75536e-06
0.00244069
-4.99169e-05
0.00256998
-6.58735e-05
0.00259841
-4.70892e-05
0.00263684
-4.44193e-06
0.00269294
3.54211e-05
0.00284154
4.15092e-05
0.00302239
1.85832e-05
0.00327962
-5.08101e-06
0.00345292
-2.82299e-05
0.00361147
-5.00238e-05
0.00376214
-1.92283e-05
0.00381424
2.29226e-05
0.00397894
2.02161e-05
0.00413638
-8.36663e-06
0.00454374
-2.48359e-05
0.00466435
-2.88082e-06
0.00481636
2.45286e-05
0.00504774
2.07184e-05
0.00517471
1.21768e-05
0.00543116
8.48236e-06
0.00563775
2.77865e-06
0.00588775
2.25348e-06
0.00614954
7.23117e-08
0.00642116
1.11377e-06
0.00643432
-2.26059e-06
0.00611996
-5.79552e-06
0.00586073
-1.21925e-05
0.00565487
-1.65248e-05
0.00537794
6.37853e-06
0.00526561
2.64103e-05
0.00502495
2.03953e-05
0.00475514
9.34922e-06
0.00456938
-3.01595e-07
0.0043409
-9.30761e-06
0.00417107
-1.75465e-05
0.00398913
-3.24e-05
0.00386539
-4.20932e-05
0.0036953
-2.60171e-05
0.00346423
2.0803e-05
0.00326936
2.50167e-05
0.00316259
-8.16899e-06
0.00318165
6.8586e-06
0.00289866
4.14988e-05
0.00270945
6.39551e-05
0.00263126
5.22412e-05
0.00257842
1.6932e-05
0.00255064
-1.99605e-05
0.00244912
-4.62172e-05
0.00228587
-4.64772e-05
0.00209248
-2.4868e-05
0.00197653
4.45911e-06
0.00187104
3.96911e-05
0.001753
6.94897e-05
0.00168342
7.75918e-05
0.00165951
5.86953e-05
0.00165203
2.93112e-05
0.00160897
-2.35105e-06
0.00156016
-3.68835e-05
0.00148506
-5.6534e-05
0.00135908
-3.41598e-05
0.00121456
1.01076e-05
0.0011021
4.62441e-05
0.0010659
4.58838e-05
0.00109375
2.33831e-05
0.00111433
2.67913e-06
0.00108519
-1.37094e-05
0.00101385
-1.83436e-05
0.000892722
4.88145e-06
0.000820413
2.75732e-05
0.000781359
4.12005e-05
0.000756645
3.41369e-05
0.000764821
1.55418e-05
0.000774008
0.000745322
3.496e-05
0.000607682
4.96771e-05
0.000671115
3.30423e-05
0.000810692
2.56926e-05
0.000882905
1.52258e-05
0.000912085
-2.39146e-05
0.000909027
-3.61365e-05
0.000910807
-2.53333e-05
0.000925852
-9.86611e-06
0.00103899
-2.32018e-05
0.00113714
-5.47634e-05
0.00116333
-6.17677e-05
0.00112592
-1.2581e-05
0.00105007
4.91251e-05
0.00108214
7.24511e-05
0.00124884
4.08142e-05
0.00143897
3.14818e-06
0.00157779
-2.3805e-05
0.00166329
-4.91287e-05
0.00170192
-6.62062e-05
0.00172728
-5.57487e-05
0.00170758
-2.33725e-05
0.00173794
1.03667e-05
0.00182709
3.30158e-05
0.00194647
4.58003e-05
0.00206778
2.48049e-05
0.00223084
-1.45203e-05
0.00250785
-5.11455e-05
0.00260357
-6.72832e-05
0.00259857
-5.1382e-05
0.00259877
-6.96855e-06
0.00266102
3.4228e-05
0.00280743
3.88977e-05
0.00301168
1.3838e-05
0.00327397
-1.11545e-05
0.00344616
-3.34433e-05
0.00360181
-5.13163e-05
0.00374617
-2.2134e-05
0.00377114
2.58472e-05
0.00392735
2.30668e-05
0.00413053
-1.01635e-05
0.00453957
-2.52673e-05
0.00464124
-5.39263e-06
0.00476537
2.22046e-05
0.00498894
2.08891e-05
0.00517281
1.22461e-05
0.00540824
8.24938e-06
0.00561188
2.16097e-06
0.00584477
1.84074e-06
0.00610751
-1.10007e-08
0.0063868
9.17183e-07
0.00638623
-1.61311e-06
0.00608734
-4.66441e-06
0.00583868
-1.12181e-05
0.00562331
-1.42337e-05
0.00536292
8.29191e-06
0.00519874
2.82581e-05
0.00496292
1.80293e-05
0.00472224
6.20967e-06
0.00453029
9.54139e-06
0.00433553
-7.7293e-06
0.00413473
-3.03672e-05
0.00393471
-3.34461e-05
0.00386463
-3.7007e-05
0.0036865
-2.13373e-05
0.00345633
2.8645e-05
0.00322678
2.88143e-05
0.00314165
-4.07493e-06
0.00319968
1.00061e-05
0.00287507
4.45563e-05
0.00268417
6.58283e-05
0.00259634
5.52947e-05
0.00257198
2.32149e-05
0.00258088
-1.0713e-05
0.002464
-4.3545e-05
0.00229279
-4.41909e-05
0.00209104
-2.13826e-05
0.00195049
8.01043e-06
0.00184218
4.55896e-05
0.00172665
7.84163e-05
0.00165338
8.37373e-05
0.00164389
6.0066e-05
0.00166766
3.35488e-05
0.00166165
6.33893e-06
0.00161292
-2.85477e-05
0.00153507
-5.87166e-05
0.00137054
-3.91582e-05
0.00119505
6.2147e-06
0.00107513
4.40827e-05
0.0010347
4.47623e-05
0.00108355
2.57143e-05
0.0011383
1.34714e-05
0.00109728
-9.7435e-06
0.00102529
-1.34234e-05
0.000896037
7.831e-06
0.000800893
3.34956e-05
0.000762777
4.64037e-05
0.000746806
2.44772e-05
0.000777336
7.66208e-06
0.000785657
0.000770597
3.58168e-05
0.000588092
4.54561e-05
0.000677518
3.38456e-05
0.000835063
3.4094e-05
0.000900283
2.07387e-05
0.000944616
1.08878e-06
0.000957097
-1.13549e-05
0.000953247
-1.22087e-05
0.000961913
4.59228e-07
0.00105439
-1.78813e-06
0.00116259
-2.34326e-05
0.00121497
-3.84615e-05
0.00115794
-4.50143e-06
0.00104223
4.21509e-05
0.00106406
4.79857e-05
0.00125694
2.21645e-05
0.00149559
-1.00683e-05
0.00166657
-3.81858e-05
0.00175562
-6.11307e-05
0.00180686
-6.84413e-05
0.00179708
-5.0093e-05
0.0017573
-2.54925e-05
0.00177011
8.78582e-07
0.00185778
2.13874e-05
0.00200363
2.34264e-05
0.00212946
1.19216e-05
0.00234228
-2.19617e-05
0.00259277
-5.5206e-05
0.00272895
-6.14723e-05
0.00270703
-3.94616e-05
0.00269327
-9.56867e-06
0.00271363
1.31493e-05
0.00287574
1.47253e-05
0.00313952
1.51033e-06
0.00342999
-1.66673e-05
0.00362799
-3.20164e-05
0.00378648
-4.21834e-05
0.00392523
-2.06157e-05
0.00391295
5.13887e-06
0.00404571
1.27052e-06
0.00436025
-1.50658e-05
0.00477729
-2.22579e-05
0.00491569
-6.5321e-06
0.00500132
1.26344e-05
0.00523193
1.19633e-05
0.00550708
7.78782e-06
0.00579063
5.30441e-06
0.00602848
1.09912e-06
0.0062934
1.50372e-06
0.00656754
-2.02991e-07
0.00686642
1.61744e-06
0.00687099
-1.76301e-07
0.0065451
-2.84257e-06
0.00628057
-6.93154e-06
0.00604514
-8.98698e-06
0.00574786
8.4005e-06
0.0054973
2.40072e-05
0.0052487
2.01575e-05
0.00505774
1.20861e-05
0.00486377
8.13051e-06
0.0045956
1.10715e-06
0.00443721
-8.87453e-06
0.00425043
-1.30989e-05
0.00405691
-1.21846e-05
0.00386033
-7.47422e-06
0.0035931
2.19316e-05
0.00330355
3.17709e-05
0.00332651
8.87981e-06
0.00333589
1.78926e-05
0.00298262
3.8838e-05
0.00275131
6.09689e-05
0.00267878
5.82301e-05
0.00267853
3.11497e-05
0.00269481
3.28593e-06
0.00259845
-1.88001e-05
0.00239825
-2.36904e-05
0.00217129
-1.13022e-05
0.00200777
1.72399e-05
0.00187981
4.65107e-05
0.00174873
7.11251e-05
0.00168106
8.26267e-05
0.00169428
6.56602e-05
0.00173806
4.0869e-05
0.00172688
1.51493e-05
0.00166792
-1.64443e-05
0.00158701
-3.66859e-05
0.00143215
-3.191e-05
0.00121288
-5.35765e-07
0.00107927
2.84883e-05
0.00103439
4.16368e-05
0.00110184
3.24231e-05
0.00117268
2.29725e-05
0.00113537
8.02132e-06
0.00104685
1.75661e-06
0.000922661
1.24629e-05
0.000813294
2.92448e-05
0.000773508
3.39866e-05
0.000760979
2.38058e-05
0.000809472
8.111e-06
0.000816755
0.000795662
3.38294e-05
0.000548543
3.49449e-05
0.000669578
3.19752e-05
0.000829868
4.25927e-05
0.000889453
3.52891e-05
0.00094433
2.00178e-05
0.000955845
2.81608e-06
0.000961975
-1.11465e-05
0.000975586
3.34208e-06
0.0010421
1.45524e-05
0.00114467
-2.8197e-06
0.00121496
-1.99672e-05
0.00117028
3.64671e-06
0.00101108
3.66037e-05
0.00104487
3.27588e-05
0.00124898
-1.66649e-06
0.00150137
-2.861e-05
0.00169693
-4.31964e-05
0.00177007
-5.73882e-05
0.0018228
-6.85525e-05
0.00179148
-5.5545e-05
0.00172714
-2.98049e-05
0.00173922
-3.90899e-06
0.00182733
1.36912e-05
0.00197119
1.12737e-05
0.00212081
-9.42128e-06
0.00232302
-2.99586e-05
0.00261123
-5.05461e-05
0.00272988
-5.54598e-05
0.00268174
-3.95153e-05
0.00264267
-1.15027e-05
0.00267817
9.47516e-06
0.00283943
5.53014e-06
0.00310253
-7.94416e-06
0.00340545
-2.06276e-05
0.00359722
-3.0182e-05
0.00374875
-3.76668e-05
0.0038792
-2.17254e-05
0.00385549
6.79235e-06
0.00398042
-1.25968e-06
0.00427859
-1.61148e-05
0.00474314
-1.82115e-05
0.00484521
-6.23155e-06
0.00491208
1.35741e-05
0.00512638
1.34447e-05
0.00539454
8.43149e-06
0.0056697
5.37161e-06
0.00588359
6.42746e-07
0.00613671
1.05513e-06
0.00639135
4.22004e-07
0.00669675
2.06527e-06
0.0066909
2.79876e-07
0.00638248
-2.44611e-06
0.00612683
-7.67938e-06
0.00589979
-9.73218e-06
0.00561457
8.73615e-06
0.00537244
2.49654e-05
0.00512442
1.96108e-05
0.004953
7.95779e-06
0.0047581
1.08741e-05
0.00449736
4.22606e-06
0.00434848
-2.00363e-05
0.00416002
-1.40618e-05
0.00399563
-4.64699e-06
0.00379921
-2.30744e-06
0.0035559
2.68201e-05
0.003257
3.02678e-05
0.00324483
1.47467e-05
0.00332518
2.07592e-05
0.00294243
3.99026e-05
0.00271974
5.75812e-05
0.00263327
5.39037e-05
0.00264903
3.52072e-05
0.00268538
1.85348e-05
0.00258582
-2.36041e-06
0.00238774
-1.32863e-05
0.00215546
-4.30876e-06
0.00198484
2.13257e-05
0.00184704
4.98753e-05
0.00171972
7.42419e-05
0.00165427
8.00347e-05
0.00167046
6.30014e-05
0.00173868
4.33926e-05
0.00170891
2.7502e-05
0.00169201
4.65094e-06
0.00160522
-2.51373e-05
0.00143546
-2.71756e-05
0.00121652
-1.17061e-06
0.00104811
2.40807e-05
0.00101466
3.12856e-05
0.00108223
3.06987e-05
0.00116768
3.02997e-05
0.0011397
2.23062e-05
0.00106264
1.20259e-05
0.000923493
1.89466e-05
0.000808635
2.95311e-05
0.00076191
3.20557e-05
0.000758461
1.941e-05
0.000811053
9.70596e-06
0.000831547
0.000784832
2.11721e-05
0.000540708
2.18742e-05
0.000667079
3.17792e-05
0.000818814
4.3917e-05
0.000878594
4.45911e-05
0.000945183
3.24042e-05
0.000974974
1.51023e-05
0.000987609
5.61133e-06
0.00100389
1.5276e-05
0.00104514
3.23867e-05
0.00113694
1.55874e-05
0.00123585
1.23327e-06
0.00118829
1.42428e-05
0.00101824
2.16815e-05
0.00105337
1.53277e-06
0.00127988
-2.18218e-05
0.00154248
-3.9496e-05
0.00170319
-4.77219e-05
0.00177514
-6.08199e-05
0.0018355
-6.77501e-05
0.00182003
-5.31773e-05
0.00173666
-3.25549e-05
0.00173429
-1.12834e-05
0.00182408
2.19328e-07
0.00198974
-1.16823e-05
0.00215381
-2.21494e-05
0.00238384
-3.60454e-05
0.00265334
-4.91853e-05
0.00275584
-4.94397e-05
0.0027203
-3.25467e-05
0.00267448
-1.50133e-05
0.00269058
-8.61828e-06
0.0028673
-1.15397e-05
0.00316942
-1.74352e-05
0.00346434
-2.46598e-05
0.00366256
-2.79922e-05
0.00381518
-3.12032e-05
0.00395421
-2.23343e-05
0.00391577
-1.07342e-05
0.00402331
-1.39797e-05
0.0044328
-1.95986e-05
0.00483174
-1.84176e-05
0.00496651
-8.59125e-06
0.00502885
3.33808e-06
0.00524956
4.13369e-06
0.00560182
3.14001e-06
0.00589866
1.40483e-06
0.00615487
-1.12076e-06
0.00642966
8.40187e-07
0.00670935
-1.45193e-07
0.00701992
2.24424e-06
0.0070201
2.29997e-06
0.00669142
5.28479e-07
0.00642242
-1.68102e-06
0.0061712
-2.32053e-06
0.00586538
8.97282e-06
0.00552944
2.02633e-05
0.00527855
1.99654e-05
0.00514231
1.44937e-05
0.00495154
1.22952e-05
0.00466113
8.3797e-06
0.00450586
2.79218e-06
0.00432536
7.3829e-06
0.00406956
1.20591e-05
0.00388144
8.37871e-06
0.00362821
2.14058e-05
0.00328439
3.56221e-05
0.00334652
2.48344e-05
0.00337041
2.61344e-05
0.00298998
3.68207e-05
0.00274158
5.34192e-05
0.00265646
5.48305e-05
0.00269508
4.55044e-05
0.00271602
3.3355e-05
0.00260609
1.92044e-05
0.00243823
1.12448e-05
0.0022037
6.65917e-06
0.00201168
2.63567e-05
0.00184782
5.02913e-05
0.00171134
7.01718e-05
0.00164742
7.78958e-05
0.00168472
6.21884e-05
0.00176221
4.72671e-05
0.00176936
3.43087e-05
0.00171966
2.07273e-05
0.0016291
-1.79937e-06
0.00146322
-1.49713e-05
0.00123293
-1.5991e-06
0.00104804
1.31767e-05
0.00100889
2.71635e-05
0.0010833
3.21412e-05
0.00115873
3.58036e-05
0.00113303
2.98856e-05
0.00106889
2.20114e-05
0.000938317
2.47669e-05
0.000815605
3.08455e-05
0.000767053
2.68962e-05
0.000768862
1.75928e-05
0.000828
5.03134e-06
0.000843716
0.000804583
1.32309e-05
0.000541851
5.17513e-06
0.000668555
2.68873e-05
0.000788672
4.9614e-05
0.00084421
4.3393e-05
0.000939634
3.58249e-05
0.000986807
2.50212e-05
0.00099718
1.70933e-05
0.00100956
2.27462e-05
0.00103886
3.07509e-05
0.00111769
1.84742e-05
0.00123793
7.33728e-06
0.00120068
1.45434e-05
0.00101862
1.49496e-05
0.00105681
-1.23442e-05
0.00130259
-3.70844e-05
0.00155337
-4.85957e-05
0.00170303
-5.17245e-05
0.00175494
-5.87694e-05
0.00181132
-6.40727e-05
0.00181596
-5.18866e-05
0.00171607
-3.63651e-05
0.00170846
-2.0457e-05
0.00179859
-1.15245e-05
0.00195885
-2.17442e-05
0.00215611
-3.8019e-05
0.00237319
-4.57106e-05
0.00257704
-4.5795e-05
0.00272805
-4.44969e-05
0.00270039
-3.22993e-05
0.00264418
-1.62947e-05
0.00267072
-1.18732e-05
0.00284642
-2.08131e-05
0.00314513
-2.62329e-05
0.00344878
-2.58413e-05
0.00363517
-2.41767e-05
0.00378448
-2.77579e-05
0.00392315
-2.22737e-05
0.00388266
-1.00555e-05
0.00398754
-1.81142e-05
0.00435476
-1.87195e-05
0.00479965
-1.39287e-05
0.00490486
-7.19815e-06
0.00496051
6.59074e-06
0.00516803
6.69575e-06
0.00548627
4.06932e-06
0.00578526
1.74889e-06
0.00601194
-1.04098e-06
0.00628078
6.66215e-07
0.00653218
4.92727e-07
0.00684974
2.68299e-06
0.00683531
2.47575e-06
0.00652692
5.8764e-07
0.0062606
-3.35887e-06
0.00602432
-5.08405e-06
0.00572221
8.35365e-06
0.00542819
2.0656e-05
0.00518219
2.23368e-05
0.00505074
1.3372e-05
0.00486722
6.67171e-06
0.00456096
7.98865e-06
0.00443758
-2.44103e-06
0.00427166
3.29623e-06
0.0040175
1.21913e-05
0.00382064
9.92552e-06
0.00359607
2.41895e-05
0.0032585
3.30366e-05
0.00327059
2.94778e-05
0.00335679
2.81682e-05
0.00296953
3.77187e-05
0.00272419
5.00157e-05
0.00263006
4.81202e-05
0.00267388
4.71316e-05
0.00270351
4.67245e-05
0.00261763
3.84288e-05
0.00242178
2.33986e-05
0.00219695
1.98364e-05
0.00201119
3.47111e-05
0.00181902
5.14302e-05
0.00168533
6.49084e-05
0.00162529
6.7896e-05
0.00166986
5.95699e-05
0.00178222
5.1532e-05
0.00178108
4.66919e-05
0.00167845
3.43757e-05
0.00160759
1.2555e-05
0.00147424
-4.64497e-06
0.00123668
3.52173e-06
0.00105243
1.20924e-05
0.00099704
2.24331e-05
0.0010702
3.09226e-05
0.0011373
3.68433e-05
0.00111722
3.32116e-05
0.00106753
2.833e-05
0.00093982
2.99989e-05
0.000814717
3.21533e-05
0.000770499
2.64109e-05
0.000778888
1.24926e-05
0.000857269
3.86041e-07
0.000848718
0.000814765
7.65674e-06
0.000537281
1.0902e-06
0.000674695
2.04386e-05
0.000766436
3.52213e-05
0.000825166
3.09069e-05
0.000944592
2.77851e-05
0.000989091
2.41344e-05
0.00100042
2.38734e-05
0.00100873
3.00978e-05
0.0010417
3.01402e-05
0.00113517
1.55999e-05
0.00124784
1.12172e-05
0.00123048
1.15401e-05
0.00103418
-6.802e-07
0.00108499
-3.16432e-05
0.00133669
-4.97101e-05
0.00156055
-5.60392e-05
0.00170315
-5.26998e-05
0.00178036
-5.7693e-05
0.00182513
-6.04923e-05
0.00182661
-4.99265e-05
0.0017134
-3.80269e-05
0.00171851
-2.81347e-05
0.00181068
-2.79103e-05
0.00197911
-3.74897e-05
0.00217874
-4.8657e-05
0.00239719
-5.31525e-05
0.00260552
-4.55758e-05
0.00274126
-4.17876e-05
0.00271275
-2.96941e-05
0.00265211
-2.06038e-05
0.00267511
-2.54682e-05
0.00287682
-3.09377e-05
0.00318989
-3.18403e-05
0.00346889
-2.76318e-05
0.00365059
-2.3193e-05
0.00380443
-2.49348e-05
0.00395962
-2.32736e-05
0.00391503
-2.12362e-05
0.004011
-2.22385e-05
0.00446359
-2.11113e-05
0.00483118
-1.61455e-05
0.00496385
-9.53673e-06
0.0050246
-3.74263e-06
0.00523641
-2.26836e-06
0.00563426
-9.66994e-07
0.00593618
-2.0996e-06
0.00620459
-2.93967e-06
0.00648749
2.07457e-07
0.00676868
-2.76079e-07
0.0070879
2.41085e-06
0.00708409
4.47397e-06
0.00675741
4.08278e-06
0.00647338
2.80418e-06
0.00621151
3.143e-06
0.00590085
9.7924e-06
0.00552185
1.67601e-05
0.00527188
1.99017e-05
0.00516071
1.70527e-05
0.00498019
1.27774e-05
0.0046978
1.37733e-05
0.00451602
1.59028e-05
0.00434336
2.02026e-05
0.00406541
2.25533e-05
0.00387049
1.73506e-05
0.00364345
2.13296e-05
0.00327438
3.84421e-05
0.00332397
3.6425e-05
0.00337045
3.18762e-05
0.00299629
3.68522e-05
0.00273323
4.68223e-05
0.00263698
4.66646e-05
0.0026988
4.81223e-05
0.00270669
5.59441e-05
0.00260726
5.09894e-05
0.00241827
3.9033e-05
0.0022273
2.98163e-05
0.00203249
3.95071e-05
0.00183645
5.12539e-05
0.00169464
6.01604e-05
0.00163708
6.16154e-05
0.00167737
5.5465e-05
0.00179014
5.08443e-05
0.0017567
5.34052e-05
0.00168628
4.71597e-05
0.00163429
3.23892e-05
0.00149196
1.03206e-05
0.00126003
7.03254e-06
0.00105839
1.02799e-05
0.00100399
1.9877e-05
0.0010671
2.94333e-05
0.00113596
3.54008e-05
0.00112064
3.20236e-05
0.00107217
3.58959e-05
0.000940343
3.5884e-05
0.00081319
3.51492e-05
0.00077009
2.17978e-05
0.000798205
3.80714e-06
0.000872191
4.04904e-07
0.000856154
0.000803408
1.8277e-06
0.000535245
-4.61786e-06
0.000683045
9.5612e-06
0.000755112
2.41087e-05
0.000813425
2.79652e-05
0.000937179
2.11486e-05
0.000987706
2.43878e-05
0.000989029
2.71038e-05
0.000997613
2.54162e-05
0.00104122
2.40493e-05
0.00113696
1.45496e-05
0.00127974
3.87722e-06
0.00122481
4.38139e-06
0.00104275
-1.02949e-05
0.00110642
-4.42156e-05
0.00137238
-5.92405e-05
0.00157299
-6.10339e-05
0.001697
-5.00923e-05
0.00177862
-5.01477e-05
0.00183295
-5.62133e-05
0.00181771
-5.13209e-05
0.00170777
-3.92305e-05
0.0017041
-2.88979e-05
0.00179822
-3.24918e-05
0.00197138
-4.73001e-05
0.00218585
-6.02783e-05
0.00240855
-5.69505e-05
0.00263754
-3.77325e-05
0.00271342
-3.61339e-05
0.00270162
-2.98802e-05
0.00263993
-2.15083e-05
0.00266435
-2.76054e-05
0.002882
-3.82482e-05
0.00317531
-3.68922e-05
0.00345648
-2.64799e-05
0.00362566
-2.05708e-05
0.00378369
-2.34413e-05
0.00394305
-2.26886e-05
0.00389695
-1.99571e-05
0.00399516
-2.47705e-05
0.00440289
-1.96752e-05
0.00480592
-1.31258e-05
0.0049178
-8.12758e-06
0.00497772
6.10859e-07
0.00518032
9.18371e-07
0.00553429
1.88549e-07
0.00583989
-1.5407e-06
0.00608102
-2.41029e-06
0.00636673
4.50872e-07
0.00661187
2.67709e-07
0.00693784
2.65306e-06
0.00692678
4.09459e-06
0.00661354
3.44339e-06
0.00633559
5.17272e-07
0.0060998
-3.51687e-07
0.00578403
9.14938e-06
0.00545219
1.74427e-05
0.00520375
2.22768e-05
0.00508794
1.77786e-05
0.00492066
4.51457e-06
0.00462201
1.03586e-05
0.00446336
1.65569e-05
0.00430219
1.79761e-05
0.00402813
1.8877e-05
0.00383318
1.59286e-05
0.00361577
2.27669e-05
0.00325894
3.63172e-05
0.0032671
3.87505e-05
0.00335738
3.30892e-05
0.00299124
3.79481e-05
0.00272411
4.44936e-05
0.00262493
4.17111e-05
0.00268801
5.04955e-05
0.00269914
6.05946e-05
0.00257364
5.90692e-05
0.00243629
4.33491e-05
0.00222515
3.13716e-05
0.00204141
3.95844e-05
0.00182548
5.26621e-05
0.00168178
6.34219e-05
0.00162066
6.03846e-05
0.00168042
4.50649e-05
0.00174969
4.57718e-05
0.00176764
5.3617e-05
0.00170261
5.95035e-05
0.00163948
4.69116e-05
0.00149927
2.04165e-05
0.00128697
1.24403e-05
0.00107694
1.1086e-05
0.0010161
1.31743e-05
0.00107068
2.66652e-05
0.00112405
3.50156e-05
0.00110782
3.37747e-05
0.00107211
4.06328e-05
0.000938772
4.07062e-05
0.000807113
3.56457e-05
0.000776621
1.69571e-05
0.000814465
-2.90015e-06
0.000868169
-5.61048e-06
0.00085511
0.000802666
-9.76558e-08
0.000538854
-8.80569e-06
0.000698286
2.71287e-06
0.000754122
2.02139e-05
0.000795926
2.11168e-05
0.000924256
1.42884e-05
0.000997481
2.62694e-05
0.000988031
3.01315e-05
0.000997796
2.64573e-05
0.00105296
1.94902e-05
0.00113609
2.27045e-06
0.00129224
1.43472e-06
0.00123291
1.70226e-08
0.00105101
-1.96645e-05
0.00112382
-5.04275e-05
0.00140085
-6.33309e-05
0.00160658
-5.99508e-05
0.00169468
-4.63475e-05
0.00172671
-4.16075e-05
0.00182347
-4.79747e-05
0.00181693
-4.57551e-05
0.00170591
-4.20693e-05
0.00169557
-4.02719e-05
0.00179003
-4.75603e-05
0.00199806
-5.793e-05
0.00220611
-6.4196e-05
0.00240128
-5.58529e-05
0.00260925
-3.67529e-05
0.00267211
-3.57914e-05
0.00270961
-2.9432e-05
0.00264373
-2.49097e-05
0.00266707
-3.49719e-05
0.00288494
-4.10917e-05
0.00321031
-3.82102e-05
0.0034605
-2.73441e-05
0.00362221
-2.12722e-05
0.00378945
-2.28085e-05
0.00396204
-2.3663e-05
0.00391621
-2.67754e-05
0.00401222
-2.48838e-05
0.00447646
-2.10463e-05
0.00481751
-1.57709e-05
0.00495202
-1.06931e-05
0.00501336
-9.2016e-06
0.00522392
-7.4352e-06
0.00564627
-4.41516e-06
0.00594195
-4.66404e-06
0.00621883
-4.42854e-06
0.00651502
-3.67325e-07
0.00679166
2.64848e-08
0.0071232
2.58058e-06
0.00711321
5.71576e-06
0.00679438
6.75331e-06
0.00649597
6.88995e-06
0.00623074
8.15296e-06
0.00591864
1.07239e-05
0.00551006
1.35812e-05
0.00526202
1.80902e-05
0.00515797
1.80782e-05
0.0049843
1.35653e-05
0.00472601
1.82412e-05
0.00450432
2.62229e-05
0.00432682
2.82928e-05
0.00406869
2.66636e-05
0.00387074
2.23867e-05
0.00365058
2.22509e-05
0.00327097
4.04237e-05
0.00328918
4.30713e-05
0.00336002
3.53541e-05
0.00300957
3.79268e-05
0.00272829
4.05846e-05
0.0026315
4.02405e-05
0.00270203
5.45289e-05
0.00267891
6.30213e-05
0.00258022
6.24462e-05
0.00244115
5.24487e-05
0.00225965
4.31128e-05
0.00205663
4.521e-05
0.00182004
4.91252e-05
0.00167152
5.30249e-05
0.00161399
4.54982e-05
0.00169543
3.49931e-05
0.00177903
4.51306e-05
0.00175908
5.95057e-05
0.001673
6.07462e-05
0.00160903
5.02276e-05
0.00150562
3.03926e-05
0.00130991
1.86805e-05
0.0010965
1.3637e-05
0.00102276
2.03527e-05
0.00106966
2.58335e-05
0.00111137
2.44643e-05
0.00110458
2.50809e-05
0.00107351
3.95763e-05
0.000927998
3.79796e-05
0.000815285
3.00976e-05
0.00079543
9.60877e-06
0.000827787
-7.89191e-06
0.000884844
-1.20841e-05
0.000854877
0.000792595
-1.26013e-06
0.000540945
-5.46945e-06
0.000704266
1.3007e-06
0.000758388
-4.36282e-06
0.000798068
-2.22481e-06
0.000919401
4.44907e-06
0.000989869
2.48673e-05
0.000965362
3.20836e-05
0.000990614
2.29003e-05
0.00106285
1.07992e-05
0.00114045
-6.49968e-06
0.00128296
-2.58616e-06
0.00124169
-8.44118e-06
0.00104628
-2.74e-05
0.0011335
-5.18813e-05
0.00141208
-6.299e-05
0.00162353
-6.03501e-05
0.00168815
-4.33921e-05
0.00170146
-3.10204e-05
0.00180349
-3.8697e-05
0.00182479
-4.34884e-05
0.0017187
-4.20834e-05
0.00170789
-4.05507e-05
0.00179659
-4.65978e-05
0.00200743
-6.06536e-05
0.00221131
-6.63389e-05
0.00240176
-5.60788e-05
0.00258575
-3.48405e-05
0.0026671
-3.47333e-05
0.00270531
-3.00821e-05
0.00263618
-2.56331e-05
0.00266093
-3.547e-05
0.0028982
-4.55182e-05
0.00319768
-4.02614e-05
0.00344993
-2.59777e-05
0.00360077
-2.02256e-05
0.00377677
-2.21392e-05
0.00395338
-2.26694e-05
0.00390524
-2.44154e-05
0.00400561
-2.60509e-05
0.00442542
-1.95797e-05
0.00480021
-1.34932e-05
0.00491822
-9.27177e-06
0.00498227
-4.46513e-06
0.00518705
-4.28245e-06
0.00556199
-3.01105e-06
0.00586988
-3.6007e-06
0.00612372
-3.57239e-06
0.00641435
1.03794e-07
0.00666596
3.1444e-07
0.00699522
2.84608e-06
0.00698239
4.83943e-06
0.00666512
5.43372e-06
0.00638312
4.07526e-06
0.00614558
3.95755e-06
0.00582769
9.98168e-06
0.00546194
1.44993e-05
0.00521703
1.89027e-05
0.00510079
1.92933e-05
0.00494281
7.53717e-06
0.00467505
1.30614e-05
0.0044648
2.75884e-05
0.00429245
2.84477e-05
0.00403908
2.29856e-05
0.00384845
1.98037e-05
0.00362763
2.31618e-05
0.0032601
3.82276e-05
0.00324964
4.24176e-05
0.00335203
3.5389e-05
0.00301187
3.84931e-05
0.0027227
4.11275e-05
0.00262801
3.56945e-05
0.0027013
4.99863e-05
0.00264777
6.99633e-05
0.00255705
6.68268e-05
0.00242344
5.32575e-05
0.00226219
4.34241e-05
0.00206471
4.55201e-05
0.0018303
4.90793e-05
0.00167809
4.98461e-05
0.00162686
3.4942e-05
0.00169749
2.59983e-05
0.00181899
3.92203e-05
0.00171983
5.68607e-05
0.00164447
5.97619e-05
0.00161142
5.44659e-05
0.00152849
3.59052e-05
0.0013266
2.51812e-05
0.00109056
2.1749e-05
0.00102882
2.0429e-05
0.00106775
2.47502e-05
0.00111297
2.48688e-05
0.00111447
2.07585e-05
0.00106767
2.80172e-05
0.000915984
3.13148e-05
0.000821118
2.12163e-05
0.000800308
-1.33516e-06
0.000853287
-9.71579e-06
0.000904701
-6.54554e-06
0.000853437
0.000775554
-3.04161e-06
0.000549896
-8.8698e-06
0.000701331
-3.38011e-06
0.000751531
-5.84635e-06
0.000806152
-1.27374e-05
0.000925609
-1.10363e-05
0.00098039
3.19588e-06
0.000946576
1.51198e-05
0.000974788
7.54286e-06
0.00106736
-1.16529e-05
0.00117174
-1.64702e-05
0.00129385
-6.83912e-06
0.00123493
-1.4872e-05
0.0010657
-3.05904e-05
0.00115937
-4.95207e-05
0.0014464
-6.28418e-05
0.00161364
-5.79172e-05
0.00168282
-3.50838e-05
0.00169011
-2.03407e-05
0.00178787
-3.23557e-05
0.00184407
-4.44734e-05
0.00173612
-4.28449e-05
0.00170182
-4.16017e-05
0.00180236
-4.72321e-05
0.00199466
-5.92724e-05
0.002231
-6.74798e-05
0.00243182
-5.81617e-05
0.00259213
-3.36437e-05
0.00264334
-3.32749e-05
0.00270875
-3.05668e-05
0.00264288
-2.84648e-05
0.00266273
-3.93069e-05
0.00292101
-4.40893e-05
0.00322344
-3.95182e-05
0.00344867
-2.74257e-05
0.00359278
-2.18621e-05
0.00377777
-2.24011e-05
0.00396247
-2.36607e-05
0.00391744
-2.88314e-05
0.00401932
-2.48154e-05
0.00447659
-2.04573e-05
0.00480487
-1.55199e-05
0.00494045
-1.15984e-05
0.00500315
-1.35105e-05
0.00521813
-1.16885e-05
0.00565048
-6.73016e-06
0.00594205
-5.47217e-06
0.00622404
-5.0447e-06
0.00652686
-1.56393e-06