/*--------------------------------*- C++ -*----------------------------------*\
| =========                 |                                                 |
| \\      /  F ield         | OpenFOAM: The Open Source CFD Toolbox           |
|  \\    /   O peration     | Version:  2312                                  |
|   \\  /    A nd           | Website:  www.openfoam.com                      |
|    \\/     M anipulation  |                                                 |
\*---------------------------------------------------------------------------*/
FoamFile
{
    version     2.0;
    format      ascii;
    arch        "LSB;label=32;scalar=64";
    class       volVectorField;
    location    "3";
    object      U.air;
}
// * * * * * * * * * * * * * * * * * * * * * * * * * * * * * * * * * * * * * //

dimensions      [0 1 -1 0 0 0 0];

internalField   nonuniform List<vector> 
50000
(
(-0.00396242 0.123623 0)
(0.00680703 0.121585 0)
(0.00185437 0.123048 0)
(0.0046491 0.120383 0)
(0.00996771 0.124064 0)
(-0.000485626 0.117876 0)
(-0.00188466 0.11964 0)
(-0.00422232 0.117385 0)
(-0.00992182 0.116207 0)
(-0.00425516 0.123084 0)
(-0.013757 0.11869 0)
(-0.0236264 0.117501 0)
(-0.0142323 0.120692 0)
(0.00183525 0.121399 0)
(0.0219555 0.121847 0)
(0.0164766 0.118021 0)
(-0.00109112 0.123702 0)
(-0.00478179 0.122471 0)
(0.000650047 0.11575 0)
(-0.00984933 0.114691 0)
(-0.0112821 0.113661 0)
(-0.00710415 0.119364 0)
(0.00596473 0.118653 0)
(0.00650465 0.116037 0)
(0.012303 0.116028 0)
(0.0122187 0.111241 0)
(-0.00227637 0.119096 0)
(-0.00385341 0.12 0)
(-0.0110616 0.112646 0)
(-0.0177959 0.111292 0)
(-0.00813169 0.119392 0)
(0.0107823 0.119173 0)
(0.0203158 0.107457 0)
(0.0115 0.111437 0)
(0.00244798 0.111521 0)
(-0.000898668 0.111078 0)
(-0.01088 0.110582 0)
(-0.0156586 0.112109 0)
(0.00648696 0.11786 0)
(0.0171534 0.0907139 0)
(0.00193099 0.109562 0)
(-0.00395568 0.102366 0)
(-0.00741537 0.106715 0)
(0.010559 0.107859 0)
(0.0139882 0.0760483 0)
(0.00533006 0.0742211 0)
(0.00558922 0.0666813 0)
(0.00135958 0.063553 0)
(0.00129975 0.0619862 0)
(0.000447155 0.0585317 0)
(-0.000138218 0.0610183 0)
(0.000622259 0.0575976 0)
(-0.00281135 0.060007 0)
(-0.00255956 0.0687052 0)
(-0.00854726 0.0672522 0)
(-0.00708886 0.103056 0)
(0.0080263 0.102894 0)
(0.00872121 0.0820158 0)
(0.00181334 0.0868045 0)
(-0.00115749 0.0857209 0)
(-0.00738925 0.0898042 0)
(-0.00927517 0.0907499 0)
(-0.0132565 0.102984 0)
(-0.0168461 0.105211 0)
(-0.0189119 0.109811 0)
(-0.00448163 0.118713 0)
(0.0149288 0.100834 0)
(-0.00505866 0.114848 0)
(-0.00806087 0.114377 0)
(0.0041628 0.118507 0)
(0.0162776 0.11379 0)
(0.0132519 0.112245 0)
(0.00147084 0.118637 0)
(0.00510611 0.117501 0)
(-0.00803175 0.115173 0)
(-0.0141805 0.113121 0)
(-0.00928745 0.116361 0)
(-0.00745835 0.117244 0)
(-0.00142058 0.119325 0)
(0.0131791 0.119489 0)
(0.016421 0.113387 0)
(0.0116746 0.115361 0)
(0.00292977 0.121042 0)
(0.00475815 0.121975 0)
(0.00306844 0.12288 0)
(-0.011564 0.116713 0)
(-0.0138378 0.123 0)
(-0.0025648 0.122839 0)
(0.0124389 0.121943 0)
(0.012817 0.117635 0)
(0.00115947 0.121119 0)
(0.00539279 0.122074 0)
(0.00287959 0.122049 0)
(0.000131423 0.120497 0)
(0.000908877 0.121771 0)
(0.000333603 0.121197 0)
(0.00345122 0.120814 0)
(0.00409145 0.117409 0)
(-0.000880484 0.12179 0)
(-0.000102501 0.122065 0)
(0.00394809 0.240739 0)
(0.0221146 0.244349 0)
(0.022871 0.256459 0)
(0.0116105 0.256364 0)
(-0.00429539 0.260237 0)
(-0.0129714 0.259033 0)
(-0.00355772 0.252696 0)
(0.00121796 0.256626 0)
(-0.00596387 0.260168 0)
(-0.0185487 0.256816 0)
(-0.0298278 0.262126 0)
(-0.0413061 0.252149 0)
(-0.024823 0.238288 0)
(0.00759951 0.234945 0)
(0.0349382 0.242685 0)
(0.0341075 0.258955 0)
(0.0154268 0.260673 0)
(0.00525197 0.254984 0)
(-0.00607675 0.258945 0)
(-0.0219188 0.258764 0)
(-0.0246296 0.253405 0)
(-0.0144713 0.245495 0)
(0.00501948 0.246383 0)
(0.0101353 0.250045 0)
(0.0180327 0.250995 0)
(0.0236122 0.257702 0)
(0.007406 0.256714 0)
(-0.00985918 0.253814 0)
(-0.0219488 0.257358 0)
(-0.0303517 0.253724 0)
(-0.0133997 0.245299 0)
(0.0123301 0.245073 0)
(0.0285948 0.254983 0)
(0.0211737 0.256942 0)
(0.00400076 0.256304 0)
(-0.00300415 0.25618 0)
(-0.0202476 0.256191 0)
(-0.02266 0.251747 0)
(0.00532073 0.247486 0)
(0.0234589 0.255307 0)
(0.00823476 0.255661 0)
(-0.0111565 0.253835 0)
(-0.010552 0.253024 0)
(0.00905769 0.251716 0)
(0.0143293 0.253971 0)
(0.00524691 0.253233 0)
(0.00525862 0.25254 0)
(0.00109877 0.251994 0)
(0.00118496 0.252131 0)
(0.000358706 0.251723 0)
(-0.000230446 0.25185 0)
(0.00064357 0.251751 0)
(-0.00229021 0.251887 0)
(-0.00242356 0.252604 0)
(-0.00801974 0.252777 0)
(-0.00610076 0.251399 0)
(0.00924895 0.251583 0)
(0.010429 0.253773 0)
(0.00406178 0.253468 0)
(-4.03229e-05 0.254157 0)
(-0.00771865 0.253344 0)
(-0.00807105 0.253228 0)
(-0.0099837 0.253945 0)
(-0.024416 0.254326 0)
(-0.0222681 0.253158 0)
(-0.00487842 0.24624 0)
(0.0236599 0.253855 0)
(-0.00458415 0.257988 0)
(-0.0126802 0.250638 0)
(0.00859897 0.246148 0)
(0.0260837 0.252106 0)
(0.023683 0.257732 0)
(0.00931252 0.25324 0)
(-0.00134925 0.256539 0)
(-0.0200461 0.258679 0)
(-0.021713 0.253873 0)
(-0.0135996 0.249897 0)
(-0.00937614 0.248979 0)
(0.00253008 0.243634 0)
(0.0222096 0.244848 0)
(0.0322236 0.254539 0)
(0.0262123 0.25984 0)
(0.00834422 0.255198 0)
(0.00072643 0.253889 0)
(-0.00981739 0.258825 0)
(-0.0252401 0.259246 0)
(-0.023193 0.244292 0)
(-0.00555513 0.23599 0)
(0.017068 0.240882 0)
(0.0268301 0.257688 0)
(0.0150641 0.256898 0)
(0.00441759 0.256315 0)
(-0.010536 0.257064 0)
(-0.0128216 0.251458 0)
(-0.00123634 0.245236 0)
(0.00524786 0.245694 0)
(0.0148507 0.247593 0)
(0.0181612 0.258517 0)
(0.011672 0.257585 0)
(0.00254615 0.254765 0)
(0.00538729 0.237918 0)
(0.0177104 0.24034 0)
(0.0150406 0.26012 0)
(0.00769864 0.266454 0)
(-0.00253281 0.268232 0)
(-0.00692884 0.248856 0)
(-0.0113502 0.241629 0)
(-0.00863618 0.245962 0)
(-0.00367155 0.258121 0)
(-0.0129916 0.264237 0)
(-0.0209137 0.262511 0)
(-0.0308993 0.245684 0)
(-0.0212382 0.233103 0)
(0.00832082 0.233179 0)
(0.027742 0.238311 0)
(0.0272027 0.254691 0)
(0.0121164 0.262973 0)
(-0.00300345 0.264894 0)
(-0.0116386 0.261854 0)
(-0.02411 0.250042 0)
(-0.0228616 0.240186 0)
(-0.0145216 0.24351 0)
(0.000758213 0.243413 0)
(0.0091034 0.242421 0)
(0.0184589 0.24211 0)
(0.0165968 0.239391 0)
(0.00677176 0.251092 0)
(-0.014404 0.255237 0)
(-0.024924 0.244394 0)
(-0.0248855 0.236731 0)
(-0.0117527 0.243689 0)
(0.00942382 0.24446 0)
(0.0174069 0.22856 0)
(0.0147649 0.241197 0)
(-0.000788025 0.241979 0)
(-0.00312355 0.240809 0)
(-0.0192224 0.239173 0)
(-0.0190874 0.236024 0)
(0.00499569 0.243062 0)
(0.0122106 0.20697 0)
(0.00365745 0.237189 0)
(-0.0105378 0.221638 0)
(-0.00867598 0.226053 0)
(0.00700628 0.228129 0)
(0.0118057 0.194956 0)
(0.00402547 0.193441 0)
(0.00540357 0.186817 0)
(0.000914797 0.183857 0)
(0.00132342 0.182572 0)
(0.000288133 0.179266 0)
(-0.00011769 0.181606 0)
(0.000821474 0.178238 0)
(-0.00237976 0.180554 0)
(-0.00210032 0.188587 0)
(-0.00723004 0.187104 0)
(-0.00539924 0.219748 0)
(0.00994749 0.219569 0)
(0.0101681 0.20055 0)
(0.0058699 0.204603 0)
(0.00109329 0.203091 0)
(-0.000950342 0.207387 0)
(-0.00631252 0.208572 0)
(-0.00696489 0.222503 0)
(-0.0178155 0.22832 0)
(-0.0146742 0.231118 0)
(-0.00551573 0.243076 0)
(0.0213341 0.218755 0)
(-0.00174663 0.250473 0)
(-0.00434382 0.241348 0)
(0.00907373 0.242736 0)
(0.0229855 0.240137 0)
(0.0254265 0.241744 0)
(0.0156098 0.251677 0)
(-0.00180986 0.26036 0)
(-0.0138423 0.249493 0)
(-0.0214548 0.238559 0)
(-0.0142758 0.243379 0)
(-0.00482779 0.243103 0)
(0.00764038 0.242594 0)
(0.0225855 0.243862 0)
(0.030802 0.241503 0)
(0.0284996 0.252905 0)
(0.017147 0.256834 0)
(0.00608459 0.258495 0)
(-0.00798798 0.259886 0)
(-0.020859 0.25131 0)
(-0.0216334 0.245208 0)
(-0.00537256 0.236964 0)
(0.0132262 0.240023 0)
(0.0211539 0.247797 0)
(0.0151539 0.260635 0)
(0.00312198 0.266434 0)
(-0.00103279 0.252818 0)
(-0.0104264 0.246927 0)
(-0.00233693 0.242716 0)
(0.00531616 0.242844 0)
(0.015941 0.243009 0)
(0.0151828 0.249829 0)
(0.0112777 0.260933 0)
(0.0018449 0.265208 0)
(0.00768262 0.249032 0)
(0.019515 0.259308 0)
(0.0168485 0.295914 0)
(0.00978139 0.308993 0)
(0.00943911 0.303561 0)
(0.000145742 0.289291 0)
(-0.0168405 0.279311 0)
(-0.0116883 0.274999 0)
(-0.00557573 0.291247 0)
(-0.0033 0.300279 0)
(-0.0147334 0.29048 0)
(-0.0275325 0.273065 0)
(-0.018157 0.243262 0)
(0.00948828 0.238899 0)
(0.0279001 0.264923 0)
(0.0256208 0.288109 0)
(0.00628836 0.301331 0)
(-0.00433016 0.299153 0)
(-0.0138382 0.291203 0)
(-0.0244791 0.289271 0)
(-0.0256555 0.276844 0)
(-0.0163315 0.264464 0)
(-0.00102119 0.26561 0)
(0.0086921 0.271643 0)
(0.0171668 0.276189 0)
(0.0165498 0.288002 0)
(0.00313446 0.298586 0)
(-0.0147941 0.29681 0)
(-0.0249062 0.287871 0)
(-0.026046 0.277962 0)
(-0.0125878 0.264338 0)
(0.00801093 0.266416 0)
(0.017511 0.28418 0)
(0.0122002 0.288035 0)
(-0.00190822 0.288743 0)
(-0.00662473 0.288765 0)
(-0.0193981 0.288005 0)
(-0.0194734 0.276453 0)
(0.00353016 0.270055 0)
(0.0153969 0.291957 0)
(0.00199194 0.28846 0)
(-0.010085 0.28992 0)
(-0.00905808 0.281934 0)
(0.00537995 0.280403 0)
(0.0114467 0.293535 0)
(0.00422127 0.293239 0)
(0.00527287 0.293187 0)
(0.000745724 0.292762 0)
(0.00106618 0.292708 0)
(0.000208307 0.293149 0)
(-0.000129032 0.292427 0)
(0.000707853 0.293314 0)
(-0.00177459 0.293519 0)
(-0.00187764 0.293037 0)
(-0.00651657 0.293565 0)
(-0.00427946 0.28312 0)
(0.01031 0.283409 0)
(0.0109727 0.291858 0)
(0.00298246 0.29134 0)
(0.00189782 0.293348 0)
(0.00527323 0.290428 0)
(-0.0112035 0.289565 0)
(-0.0112692 0.291447 0)
(-0.0145221 0.288602 0)
(-0.013511 0.281179 0)
(-0.00266878 0.266731 0)
(0.0231103 0.287752 0)
(-0.000711305 0.290416 0)
(-0.00232437 0.27647 0)
(0.00991846 0.267514 0)
(0.0235394 0.275449 0)
(0.0261739 0.286714 0)
(0.0165885 0.295766 0)
(0.00159997 0.292197 0)
(-0.0104033 0.289721 0)
(-0.021708 0.28143 0)
(-0.0123988 0.271799 0)
(-0.00389482 0.268622 0)
(0.00981464 0.262287 0)
(0.0245773 0.263556 0)
(0.0344739 0.27916 0)
(0.0291761 0.290808 0)
(0.0176132 0.297889 0)
(0.0079471 0.3048 0)
(-0.00263474 0.303482 0)
(-0.020212 0.288957 0)
(-0.023088 0.263862 0)
(-0.00690726 0.250445 0)
(0.0112943 0.251819 0)
(0.0209712 0.279272 0)
(0.0138351 0.300332 0)
(0.00641263 0.302175 0)
(0.00285586 0.30373 0)
(-0.00956069 0.273765 0)
(-0.000555929 0.258052 0)
(0.00640038 0.257216 0)
(0.0190893 0.264037 0)
(0.0148123 0.285701 0)
(0.00526623 0.303096 0)
(0.000553175 0.305943 0)
(0.00854046 0.238039 0)
(0.0182542 0.250966 0)
(0.0154219 0.294651 0)
(0.011351 0.306435 0)
(0.0131457 0.302634 0)
(0.00323538 0.290765 0)
(-0.00293818 0.272658 0)
(-0.00576316 0.259458 0)
(-0.00312428 0.277015 0)
(0.00332024 0.297102 0)
(-0.00457784 0.28949 0)
(-0.0143653 0.262156 0)
(-0.0135175 0.236069 0)
(0.0103701 0.228265 0)
(0.0209368 0.254768 0)
(0.0154609 0.283528 0)
(0.00126467 0.294798 0)
(-0.00949725 0.297413 0)
(-0.019192 0.290078 0)
(-0.0273463 0.278722 0)
(-0.0237244 0.260068 0)
(-0.0143929 0.254466 0)
(-0.00447007 0.25466 0)
(0.00559247 0.259235 0)
(0.0102302 0.260281 0)
(0.00778257 0.267834 0)
(0.000667481 0.295362 0)
(-0.017199 0.293398 0)
(-0.0251443 0.273112 0)
(-0.0204987 0.258482 0)
(-0.00970657 0.255606 0)
(0.00322365 0.257547 0)
(0.006438 0.253319 0)
(0.00481987 0.272057 0)
(-0.0038636 0.274612 0)
(-0.00878433 0.272853 0)
(-0.01572 0.268677 0)
(-0.0159966 0.257109 0)
(0.000796585 0.25874 0)
(0.00295026 0.236896 0)
(-0.00206432 0.27137 0)
(-0.0094122 0.256342 0)
(-0.00746464 0.252494 0)
(0.00284857 0.253677 0)
(0.00675313 0.22947 0)
(0.00214716 0.230579 0)
(0.00384662 0.224193 0)
(-3.46645e-05 0.221466 0)
(0.000987227 0.21893 0)
(8.39234e-06 0.216042 0)
(-3.18121e-05 0.217971 0)
(0.00109897 0.214978 0)
(-0.00108638 0.218279 0)
(-0.00109508 0.226297 0)
(-0.00405753 0.223747 0)
(-0.00276261 0.248924 0)
(0.00884742 0.248893 0)
(0.00921568 0.236915 0)
(0.00624927 0.242188 0)
(0.00251093 0.23702 0)
(0.0040154 0.245384 0)
(-0.00301262 0.247231 0)
(-0.00396218 0.254531 0)
(-0.00572219 0.25786 0)
(-0.00352518 0.253886 0)
(-0.00243098 0.256615 0)
(0.0194479 0.250473 0)
(0.00398579 0.281224 0)
(0.00321364 0.262378 0)
(0.00980165 0.257552 0)
(0.0196451 0.259392 0)
(0.0259799 0.268439 0)
(0.0181963 0.289596 0)
(0.0059118 0.293371 0)
(-0.00381067 0.282764 0)
(-0.00988123 0.261641 0)
(-0.00819438 0.259498 0)
(-0.000156162 0.256877 0)
(0.012514 0.252241 0)
(0.0224024 0.25358 0)
(0.0313652 0.26186 0)
(0.0305678 0.28353 0)
(0.0196764 0.304722 0)
(0.0112608 0.305569 0)
(0.00010617 0.304423 0)
(-0.0118942 0.280983 0)
(-0.0164205 0.254346 0)
(-0.0070459 0.240254 0)
(0.00590436 0.240999 0)
(0.0158789 0.263134 0)
(0.0148273 0.297667 0)
(0.0102297 0.299451 0)
(0.00698378 0.289545 0)
(-0.000941472 0.266221 0)
(0.00226813 0.248258 0)
(0.0072931 0.248312 0)
(0.0141702 0.254592 0)
(0.0120454 0.281496 0)
(0.00576873 0.295525 0)
(0.000524652 0.315092 0)
(0.0104065 0.217531 0)
(0.0141612 0.256818 0)
(0.0118919 0.302549 0)
(0.0131603 0.307611 0)
(0.0178411 0.312724 0)
(0.0087748 0.298391 0)
(0.00567449 0.287516 0)
(-0.00361887 0.279796 0)
(-0.00416743 0.2899 0)
(0.00681484 0.302009 0)
(0.00415904 0.29831 0)
(-0.00683474 0.278506 0)
(-0.00722322 0.226213 0)
(0.0103128 0.224849 0)
(0.0164818 0.253705 0)
(0.0073818 0.295661 0)
(-0.00768362 0.318764 0)
(-0.014069 0.315786 0)
(-0.0181855 0.31024 0)
(-0.0256219 0.294067 0)
(-0.0252125 0.273239 0)
(-0.0159847 0.262213 0)
(-0.00597066 0.262953 0)
(0.00288979 0.271045 0)
(0.00789152 0.277191 0)
(-0.000545603 0.291607 0)
(-0.00563441 0.303666 0)
(-0.0170666 0.307279 0)
(-0.0214048 0.290901 0)
(-0.0196921 0.275551 0)
(-0.00955806 0.261871 0)
(0.00141162 0.265088 0)
(0.00511898 0.286861 0)
(-0.000735221 0.292044 0)
(-0.0053938 0.294171 0)
(-0.0100365 0.293421 0)
(-0.0128221 0.291189 0)
(-0.0152464 0.276277 0)
(-0.000387497 0.269123 0)
(0.00475146 0.296449 0)
(-0.00554159 0.293398 0)
(-0.00679615 0.294805 0)
(-0.00681609 0.283354 0)
(0.00250915 0.281303 0)
(0.00749096 0.300019 0)
(0.00247646 0.29981 0)
(0.00390686 0.300074 0)
(-5.80149e-05 0.299536 0)
(0.000640696 0.299143 0)
(6.82381e-05 0.300369 0)
(0.000319102 0.298997 0)
(0.00112868 0.300545 0)
(-0.000811118 0.301012 0)
(-0.00106893 0.299772 0)
(-0.00460489 0.300535 0)
(-0.00254573 0.284921 0)
(0.00880786 0.285128 0)
(0.00968654 0.297847 0)
(0.00513559 0.297069 0)
(0.000859417 0.298569 0)
(0.00740221 0.296296 0)
(-0.00445445 0.294741 0)
(-0.00992272 0.296089 0)
(-0.00100004 0.291836 0)
(-0.00238337 0.284255 0)
(0.000866495 0.264593 0)
(0.0181604 0.290078 0)
(0.00513644 0.296197 0)
(0.00563406 0.277152 0)
(0.0100419 0.266496 0)
(0.0194459 0.272986 0)
(0.0232987 0.288945 0)
(0.017372 0.300919 0)
(0.00951149 0.303341 0)
(0.00370573 0.295657 0)
(-0.00484373 0.284088 0)
(-0.00504356 0.271071 0)
(0.00186349 0.265955 0)
(0.0137554 0.25905 0)
(0.0234372 0.261045 0)
(0.0314643 0.277347 0)
(0.0284258 0.297887 0)
(0.0190749 0.302025 0)
(0.0138103 0.313268 0)
(0.00688446 0.312004 0)
(-0.00419385 0.296824 0)
(-0.0138261 0.263187 0)
(-0.00628651 0.235705 0)
(0.00518295 0.243538 0)
(0.0119048 0.273499 0)
(0.0119436 0.306316 0)
(0.0111249 0.314364 0)
(0.0115524 0.301556 0)
(0.00461114 0.277674 0)
(0.00505153 0.256326 0)
(0.00877272 0.252593 0)
(0.0134223 0.262271 0)
(0.0101375 0.293571 0)
(0.00512577 0.313482 0)
(0.00171257 0.308063 0)
(0.00763843 0.212399 0)
(0.00729373 0.249944 0)
(0.00980231 0.297931 0)
(0.0136503 0.305652 0)
(0.0187624 0.30706 0)
(0.0142717 0.296574 0)
(0.00946228 0.285751 0)
(0.00206732 0.277837 0)
(0.00156142 0.276623 0)
(0.0105981 0.291954 0)
(0.0125229 0.301059 0)
(-0.000502818 0.276272 0)
(0.00114575 0.227373 0)
(0.0096782 0.225528 0)
(0.00536193 0.257725 0)
(-0.00402673 0.291515 0)
(-0.0123385 0.312066 0)
(-0.0165835 0.319721 0)
(-0.0191341 0.312198 0)
(-0.0261897 0.288848 0)
(-0.0236704 0.263637 0)
(-0.0156764 0.252599 0)
(-0.0082456 0.253078 0)
(0.000357175 0.263274 0)
(-0.000632513 0.267642 0)
(-0.00779847 0.281416 0)
(-0.00888868 0.309404 0)
(-0.0176339 0.302169 0)
(-0.0192974 0.281728 0)
(-0.0167649 0.263891 0)
(-0.00761415 0.256815 0)
(-0.00317557 0.260624 0)
(-0.00330081 0.262782 0)
(-0.00526428 0.28321 0)
(-0.00772817 0.285968 0)
(-0.0105138 0.283539 0)
(-0.0103446 0.278781 0)
(-0.0127296 0.26369 0)
(-0.00379233 0.261704 0)
(-0.00389953 0.250569 0)
(-0.00687992 0.283607 0)
(-0.0074608 0.268961 0)
(-0.00623764 0.26257 0)
(2.94114e-05 0.262598 0)
(0.00254659 0.244542 0)
(0.000381048 0.2474 0)
(0.00208152 0.24207 0)
(-0.00122498 0.240008 0)
(0.000565388 0.237244 0)
(-0.000103498 0.234173 0)
(0.00012751 0.23643 0)
(0.00140274 0.233285 0)
(0.000392606 0.236696 0)
(-3.53722e-05 0.244459 0)
(-0.00111069 0.241026 0)
(-0.000714858 0.260162 0)
(0.00725091 0.260081 0)
(0.00770201 0.253565 0)
(0.00722178 0.259722 0)
(0.00335333 0.250061 0)
(0.00591712 0.261847 0)
(0.000456548 0.267309 0)
(0.00135307 0.263043 0)
(0.00419981 0.266335 0)
(0.00479217 0.262272 0)
(0.00107601 0.258769 0)
(0.0154961 0.263032 0)
(0.00995904 0.290954 0)
(0.00894828 0.269021 0)
(0.0101638 0.260738 0)
(0.0170941 0.26364 0)
(0.0224359 0.277406 0)
(0.018126 0.298297 0)
(0.0157583 0.297753 0)
(0.00866742 0.28901 0)
(0.00608717 0.272126 0)
(0.00170434 0.263885 0)
(0.00376356 0.256336 0)
(0.015129 0.249503 0)
(0.0220887 0.251918 0)
(0.0297056 0.266823 0)
(0.0275892 0.294013 0)
(0.0192901 0.304917 0)
(0.0154021 0.320978 0)
(0.0102609 0.317309 0)
(0.00513476 0.293376 0)
(-0.00677524 0.261895 0)
(-0.00386705 0.232746 0)
(0.00239437 0.235714 0)
(0.00766096 0.263833 0)
(0.0118654 0.299497 0)
(0.0123883 0.307647 0)
(0.0137043 0.305632 0)
(0.00863834 0.27453 0)
(0.00779349 0.25282 0)
(0.0104356 0.247773 0)
(0.012177 0.261164 0)
(0.0082448 0.29362 0)
(0.00451875 0.318328 0)
(-0.000541033 0.310663 0)
(0.00692037 0.217373 0)
(0.00176498 0.247236 0)
(0.00297699 0.287276 0)
(0.0166738 0.293374 0)
(0.0190292 0.305341 0)
(0.0137202 0.311601 0)
(0.0119922 0.300955 0)
(0.0063894 0.290368 0)
(0.0061608 0.286513 0)
(0.0104769 0.287794 0)
(0.0118072 0.309009 0)
(0.00219141 0.280211 0)
(0.00274837 0.2261 0)
(0.00818416 0.223691 0)
(0.00178526 0.262911 0)
(-0.0104423 0.302936 0)
(-0.0169821 0.317675 0)
(-0.018898 0.30885 0)
(-0.0188484 0.308921 0)
(-0.0247922 0.297044 0)
(-0.0218859 0.267862 0)
(-0.0161181 0.250014 0)
(-0.0104023 0.251218 0)
(-0.00452158 0.262413 0)
(-0.00383344 0.279278 0)
(-0.0126367 0.293453 0)
(-0.015321 0.3009 0)
(-0.0179778 0.301111 0)
(-0.0161863 0.289592 0)
(-0.016181 0.271283 0)
(-0.00739548 0.259059 0)
(-0.00432906 0.265384 0)
(-0.00487767 0.286417 0)
(-0.0101228 0.291946 0)
(-0.00925274 0.294015 0)
(-0.00960397 0.292608 0)
(-0.0083153 0.290241 0)
(-0.012005 0.274323 0)
(-0.0040102 0.266737 0)
(-0.00389047 0.296008 0)
(-0.00907617 0.293324 0)
(-0.00481308 0.29397 0)
(-0.00543175 0.281114 0)
(0.000414379 0.278816 0)
(0.00423969 0.299584 0)
(0.000685467 0.299608 0)
(0.00232343 0.299939 0)
(-0.00113632 0.299651 0)
(0.000448798 0.298642 0)
(-1.94583e-05 0.300718 0)
(0.000443329 0.29859 0)
(0.00145054 0.30075 0)
(0.000413362 0.301171 0)
(1.3641e-05 0.299391 0)
(-0.00248032 0.300217 0)
(-0.00108931 0.282231 0)
(0.00701494 0.282371 0)
(0.00799881 0.297436 0)
(0.00851678 0.296531 0)
(0.0012118 0.297114 0)
(0.0040198 0.2961 0)
(0.00164476 0.293842 0)
(-0.00313007 0.293841 0)
(0.00519185 0.290288 0)
(0.003928 0.284372 0)
(0.00351678 0.262418 0)
(0.0136451 0.285923 0)
(0.0109333 0.296715 0)
(0.0105565 0.275929 0)
(0.0102612 0.264531 0)
(0.017229 0.268699 0)
(0.0192364 0.2876 0)
(0.0163384 0.301476 0)
(0.0183941 0.308148 0)
(0.0158405 0.296304 0)
(0.0123053 0.284857 0)
(0.00533324 0.271525 0)
(0.00914735 0.254022 0)
(0.0161073 0.246616 0)
(0.0216376 0.248645 0)
(0.0255396 0.273413 0)
(0.0246661 0.300548 0)
(0.0193108 0.320446 0)
(0.018427 0.310879 0)
(0.0156156 0.311125 0)
(0.0100629 0.30144 0)
(-0.0012499 0.262197 0)
(-0.0013649 0.238251 0)
(0.00348732 0.234757 0)
(0.00565317 0.267302 0)
(0.0104418 0.292658 0)
(0.0124008 0.299458 0)
(0.0145858 0.299355 0)
(0.00993794 0.281514 0)
(0.0109405 0.251896 0)
(0.0110331 0.251776 0)
(0.0126288 0.266752 0)
(0.00691071 0.30225 0)
(0.00225813 0.316021 0)
(-0.00155444 0.32313 0)
(0.00614053 0.211754 0)
(-0.000933191 0.255435 0)
(0.00247602 0.276525 0)
(0.0117694 0.2806 0)
(0.0137065 0.310894 0)
(0.00946496 0.306876 0)
(0.0105619 0.295713 0)
(0.00687708 0.284948 0)
(0.0103067 0.277771 0)
(0.011772 0.293977 0)
(0.00955244 0.304119 0)
(0.00274856 0.283925 0)
(0.00453026 0.230355 0)
(0.00423312 0.22632 0)
(-0.00575854 0.269633 0)
(-0.0168056 0.303374 0)
(-0.0198174 0.320896 0)
(-0.0204785 0.313537 0)
(-0.0180956 0.307403 0)
(-0.0239316 0.294506 0)
(-0.0201157 0.262562 0)
(-0.0159962 0.255788 0)
(-0.0115862 0.256745 0)
(-0.00882146 0.262704 0)
(-0.0114378 0.272824 0)
(-0.0156711 0.288064 0)
(-0.0202035 0.295617 0)
(-0.0182177 0.307223 0)
(-0.015077 0.284061 0)
(-0.0149917 0.26501 0)
(-0.00674227 0.256407 0)
(-0.00823224 0.258537 0)
(-0.0102755 0.26869 0)
(-0.0122917 0.287214 0)
(-0.0108556 0.288554 0)
(-0.00909141 0.286255 0)
(-0.00785403 0.282944 0)
(-0.01024 0.266659 0)
(-0.00682905 0.262662 0)
(-0.00825318 0.259605 0)
(-0.00836576 0.287107 0)
(-0.00674627 0.273458 0)
(-0.0050142 0.267207 0)
(-0.00188908 0.266409 0)
(-0.000705225 0.253411 0)
(-0.00107481 0.257024 0)
(0.000500729 0.253045 0)
(-0.00218031 0.251433 0)
(0.000223269 0.24932 0)
(-0.000233274 0.245807 0)
(0.000167289 0.248219 0)
(0.00146992 0.245152 0)
(0.00181758 0.247978 0)
(0.0011193 0.255072 0)
(0.0010407 0.25118 0)
(0.00108913 0.265286 0)
(0.00601594 0.265605 0)
(0.00612286 0.261813 0)
(0.00833163 0.269503 0)
(0.00417919 0.259327 0)
(0.00505409 0.269168 0)
(0.00497677 0.277155 0)
(0.00655436 0.26638 0)
(0.00807144 0.269047 0)
(0.00848638 0.266628 0)
(0.0038087 0.259283 0)
(0.0123867 0.268441 0)
(0.0146044 0.293437 0)
(0.012345 0.272336 0)
(0.0107221 0.261503 0)
(0.0160135 0.264274 0)
(0.0181072 0.281343 0)
(0.015593 0.298851 0)
(0.0198943 0.302865 0)
(0.0200551 0.292369 0)
(0.017787 0.281667 0)
(0.0102458 0.2681 0)
(0.0117651 0.260143 0)
(0.0166095 0.252075 0)
(0.02073 0.255539 0)
(0.0228344 0.269716 0)
(0.022131 0.305647 0)
(0.0179529 0.311699 0)
(0.0194341 0.309639 0)
(0.0193196 0.317382 0)
(0.0151161 0.30222 0)
(0.00782185 0.265648 0)
(0.000991909 0.237253 0)
(0.00365593 0.234997 0)
(0.00415585 0.261063 0)
(0.00982022 0.297507 0)
(0.0119119 0.30824 0)
(0.013196 0.304062 0)
(0.0110465 0.278161 0)
(0.014215 0.25379 0)
(0.0126013 0.25387 0)
(0.012402 0.262492 0)
(0.00356876 0.31082 0)
(-3.72547e-05 0.321873 0)
(-0.000244612 0.31794 0)
(0.00310185 0.208091 0)
(-0.0021957 0.253407 0)
(-0.000580253 0.269905 0)
(0.00694272 0.286873 0)
(0.0110285 0.307781 0)
(0.00881174 0.304028 0)
(0.00660237 0.292764 0)
(0.0109062 0.281297 0)
(0.00867507 0.284297 0)
(0.00958615 0.292848 0)
(0.00825297 0.310272 0)
(0.0014793 0.292979 0)
(0.00151064 0.233721 0)
(0.00199347 0.239319 0)
(-0.0108586 0.272466 0)
(-0.0206204 0.302878 0)
(-0.0225444 0.312417 0)
(-0.0205999 0.320558 0)
(-0.015911 0.310255 0)
(-0.0204192 0.291626 0)
(-0.0198803 0.264136 0)
(-0.0168434 0.250581 0)
(-0.0112081 0.252412 0)
(-0.00989165 0.262726 0)
(-0.0135263 0.281438 0)
(-0.0205363 0.293683 0)
(-0.0231739 0.310534 0)
(-0.0170708 0.302757 0)
(-0.0108182 0.287698 0)
(-0.0148603 0.268192 0)
(-0.00667422 0.257549 0)
(-0.00867854 0.264337 0)
(-0.0116779 0.286118 0)
(-0.0155749 0.291031 0)
(-0.0110555 0.291959 0)
(-0.00783519 0.290678 0)
(-0.00713529 0.289312 0)
(-0.00969643 0.273284 0)
(-0.00650933 0.265759 0)
(-0.00822504 0.294477 0)
(-0.00929591 0.292036 0)
(-0.00495527 0.292046 0)
(-0.00448781 0.278797 0)
(-0.00118967 0.276416 0)
(0.00144866 0.297555 0)
(-0.000722135 0.297703 0)
(0.000848153 0.297961 0)
(-0.00200151 0.298068 0)
(0.000331929 0.296154 0)
(-6.93473e-05 0.298989 0)
(0.000339508 0.296452 0)
(0.00148785 0.298955 0)
(0.00147301 0.299005 0)
(0.00103399 0.29719 0)
(-0.000686028 0.297816 0)
(0.000555359 0.279627 0)
(0.00591867 0.279573 0)
(0.00650625 0.295473 0)
(0.0096509 0.294752 0)
(0.00300612 0.29518 0)
(0.000622307 0.294377 0)
(0.00664026 0.291982 0)
(0.00533716 0.291799 0)
(0.00745155 0.288181 0)
(0.00630005 0.283873 0)
(0.00525754 0.261496 0)
(0.0109144 0.280746 0)
(0.0151644 0.295736 0)
(0.0128428 0.27594 0)
(0.0110309 0.263475 0)
(0.0162425 0.266167 0)
(0.0156386 0.286672 0)
(0.0146921 0.30225 0)
(0.0214871 0.297166 0)
(0.0221626 0.30055 0)
(0.0203597 0.283807 0)
(0.0111649 0.274302 0)
(0.0117502 0.255916 0)
(0.0165049 0.247653 0)
(0.0214576 0.249997 0)
(0.0240174 0.270215 0)
(0.019083 0.299536 0)
(0.0142911 0.313644 0)
(0.0182866 0.321593 0)
(0.0207587 0.321225 0)
(0.0214458 0.306229 0)
(0.0122053 0.272767 0)
(0.00340802 0.238938 0)
(0.00526395 0.23578 0)
(0.00294766 0.266209 0)
(0.00657552 0.291743 0)
(0.0123389 0.300261 0)
(0.0126905 0.304572 0)
(0.0123818 0.282507 0)
(0.0159278 0.251597 0)
(0.0140687 0.248622 0)
(0.0113997 0.279336 0)
(0.000738557 0.31207 0)
(-0.00244176 0.322145 0)
(-0.00158231 0.317658 0)
(0.00253719 0.213775 0)
(-0.00300801 0.259301 0)
(-0.0030569 0.269668 0)
(0.00506625 0.271977 0)
(0.0093939 0.301066 0)
(0.00568085 0.314245 0)
(0.00502901 0.298392 0)
(0.0130389 0.285745 0)
(0.00910277 0.281086 0)
(0.00915462 0.292848 0)
(0.00473169 0.322216 0)
(-0.00217324 0.283998 0)
(0.00206229 0.236547 0)
(-0.00163754 0.238289 0)
(-0.0132347 0.286462 0)
(-0.0224443 0.308818 0)
(-0.0231104 0.314929 0)
(-0.0194031 0.308939 0)
(-0.0134314 0.307947 0)
(-0.0166318 0.292897 0)
(-0.0172418 0.263924 0)
(-0.0155855 0.24591 0)
(-0.0143319 0.247636 0)
(-0.0143798 0.265418 0)
(-0.0196294 0.277828 0)
(-0.0217924 0.295403 0)
(-0.024232 0.30496 0)
(-0.0153051 0.293572 0)
(-0.0109903 0.284902 0)
(-0.014393 0.265649 0)
(-0.00669877 0.256009 0)
(-0.0111032 0.265687 0)
(-0.013861 0.273353 0)
(-0.0155902 0.287909 0)
(-0.0116195 0.287487 0)
(-0.00769454 0.286525 0)
(-0.00760134 0.285098 0)
(-0.00860385 0.268349 0)
(-0.00849442 0.263587 0)
(-0.0102895 0.265745 0)
(-0.00782511 0.287729 0)
(-0.00700173 0.275234 0)
(-0.00425233 0.26954 0)
(-0.0034145 0.268218 0)
(-0.00302072 0.259481 0)
(-0.00240242 0.262773 0)
(-0.000625775 0.260143 0)
(-0.00283712 0.259218 0)
(-0.000142428 0.257613 0)
(-0.000251074 0.254117 0)
(0.000367252 0.25674 0)
(0.00140642 0.253848 0)
(0.00266281 0.255835 0)
(0.00210728 0.262456 0)
(0.00295874 0.258399 0)
(0.00265587 0.268066 0)
(0.00507892 0.268476 0)
(0.00458396 0.266008 0)
(0.00821828 0.274778 0)
(0.00488608 0.267678 0)
(0.00467937 0.271894 0)
(0.00822529 0.279712 0)
(0.0105965 0.26925 0)
(0.00946001 0.27163 0)
(0.0097877 0.269315 0)
(0.00589918 0.25953 0)
(0.010541 0.270178 0)
(0.0174613 0.29363 0)
(0.0137157 0.27479 0)
(0.0114243 0.261686 0)
(0.0156394 0.264456 0)
(0.0133349 0.283623 0)
(0.0155066 0.297148 0)
(0.0229042 0.303502 0)
(0.0221978 0.29593 0)
(0.0224638 0.282408 0)
(0.0150617 0.272583 0)
(0.0157392 0.251763 0)
(0.0164371 0.242257 0)
(0.0185959 0.245197 0)
(0.019337 0.269656 0)
(0.0129258 0.289683 0)
(0.0125968 0.314571 0)
(0.0194828 0.313501 0)
(0.0222153 0.312304 0)
(0.0216719 0.306017 0)
(0.0141618 0.27762 0)
(0.00769512 0.243586 0)
(0.0055706 0.241793 0)
(0.00487162 0.261856 0)
(0.00867493 0.283721 0)
(0.0101149 0.294986 0)
(0.00724709 0.304101 0)
(0.0115162 0.276501 0)
(0.015557 0.2521 0)
(0.0122332 0.256896 0)
(0.0089039 0.279916 0)
(-0.00155862 0.308493 0)
(-0.00442618 0.318212 0)
(-0.00374139 0.316482 0)
(0.0021081 0.212655 0)
(-0.00332131 0.266369 0)
(0.000152536 0.276434 0)
(-0.000629226 0.26831 0)
(-0.00170484 0.302394 0)
(0.000135223 0.309766 0)
(0.00369509 0.291463 0)
(0.0132349 0.284224 0)
(0.00936902 0.288603 0)
(0.00675974 0.295828 0)
(0.000335403 0.314021 0)
(-0.00352149 0.293715 0)
(0.000127036 0.234055 0)
(-0.00552487 0.240046 0)
(-0.0142672 0.287709 0)
(-0.0222257 0.319123 0)
(-0.0227651 0.315461 0)
(-0.0194715 0.301087 0)
(-0.0110355 0.309437 0)
(-0.0112754 0.293272 0)
(-0.0156733 0.261473 0)
(-0.015163 0.254409 0)
(-0.0146387 0.254272 0)
(-0.0138438 0.270805 0)
(-0.0195634 0.283792 0)
(-0.0231179 0.288715 0)
(-0.0242318 0.297493 0)
(-0.0148997 0.300742 0)
(-0.010019 0.28716 0)
(-0.0143414 0.266877 0)
(-0.00696731 0.256851 0)
(-0.011042 0.265525 0)
(-0.0144964 0.285967 0)
(-0.0173932 0.289891 0)
(-0.0111089 0.289501 0)
(-0.00705824 0.289175 0)
(-0.0073878 0.288794 0)
(-0.00819747 0.272759 0)
(-0.00779402 0.265709 0)
(-0.00974158 0.292475 0)
(-0.00837498 0.290752 0)
(-0.00554726 0.290383 0)
(-0.00393745 0.276923 0)
(-0.00251798 0.274886 0)
(-0.000812078 0.2952 0)
(-0.00210923 0.295378 0)
(-2.45237e-05 0.295506 0)
(-0.00257942 0.29595 0)
(0.000153151 0.293306 0)
(-0.000154253 0.296688 0)
(0.000465157 0.29372 0)
(0.00144732 0.29646 0)
(0.00198949 0.296515 0)
(0.00187721 0.294988 0)
(0.000979895 0.295554 0)
(0.00188023 0.277728 0)
(0.00515261 0.277699 0)
(0.00495614 0.2933 0)
(0.00852233 0.292914 0)
(0.00495493 0.293464 0)
(0.000670985 0.292233 0)
(0.00840983 0.289776 0)
(0.0110112 0.290488 0)
(0.00902862 0.286919 0)
(0.00739488 0.283125 0)
(0.00661605 0.2612 0)
(0.00974952 0.275983 0)
(0.0169583 0.294272 0)
(0.013297 0.277026 0)
(0.0116468 0.26293 0)
(0.0156184 0.26585 0)
(0.0133792 0.28641 0)
(0.0117748 0.291137 0)
(0.0237831 0.298328 0)
(0.0250506 0.292891 0)
(0.0227074 0.293476 0)
(0.0149139 0.276885 0)
(0.0159804 0.260389 0)
(0.0160445 0.250774 0)
(0.0187879 0.252268 0)
(0.0161949 0.278335 0)
(0.00905391 0.311003 0)
(0.00905441 0.303778 0)
(0.0186366 0.30372 0)
(0.0212757 0.317304 0)
(0.0214776 0.308724 0)
(0.0164882 0.279777 0)
(0.00930871 0.2459 0)
(0.00869238 0.239301 0)
(0.00642526 0.260314 0)
(0.00806353 0.290252 0)
(0.00974313 0.302837 0)
(0.00715992 0.303474 0)
(0.00807247 0.269834 0)
(0.0116563 0.256583 0)
(0.0104781 0.26404 0)
(0.00427544 0.288235 0)
(-0.00440354 0.324011 0)
(-0.00293552 0.326228 0)
(-0.00172976 0.304138 0)
(0.00196128 0.215579 0)
(-0.004349 0.263857 0)
(-0.0016008 0.269663 0)
(-0.00092938 0.279071 0)
(-0.00349056 0.298484 0)
(-0.00541128 0.30224 0)
(-0.00207011 0.277731 0)
(0.00432707 0.277362 0)
(0.00642343 0.286549 0)
(-0.00171653 0.29323 0)
(-0.00679817 0.31495 0)
(-0.00369322 0.292128 0)
(-0.00211062 0.236174 0)
(-0.00803093 0.241191 0)
(-0.0135448 0.290971 0)
(-0.0215849 0.316695 0)
(-0.0224456 0.315225 0)
(-0.017456 0.301448 0)
(-0.00713255 0.29798 0)
(-0.00714165 0.296135 0)