/*--------------------------------*- C++ -*----------------------------------*\
| =========                 |                                                 |
| \\      /  F ield         | OpenFOAM: The Open Source CFD Toolbox           |
|  \\    /   O peration     | Version:  2312                                  |
|   \\  /    A nd           | Website:  www.openfoam.com                      |
|    \\/     M anipulation  |                                                 |
\*---------------------------------------------------------------------------*/
FoamFile
{
    version     2.0;
    format      ascii;
    arch        "LSB;label=32;scalar=64";
    class       volVectorField;
    location    "3";
    object      U.airMean;
}
// * * * * * * * * * * * * * * * * * * * * * * * * * * * * * * * * * * * * * //

dimensions      [0 1 -1 0 0 0 0];

internalField   nonuniform List<vector> 
50000
(
(0.00274878 0.119083 0)
(-0.00391055 0.118119 0)
(0.00217606 0.116849 0)
(-0.00387781 0.115433 0)
(-0.00120342 0.11774 0)
(-0.00136903 0.118411 0)
(-0.00744819 0.116364 0)
(-0.00250477 0.120976 0)
(0.00184881 0.11852 0)
(1.95334e-05 0.117822 0)
(-0.00336679 0.118029 0)
(-0.00391904 0.116652 0)
(-0.00862613 0.114998 0)
(0.000396755 0.118881 0)
(0.0096095 0.119709 0)
(0.0131756 0.114044 0)
(0.0062649 0.114741 0)
(0.000617099 0.114155 0)
(0.000178234 0.111891 0)
(-0.000544586 0.110391 0)
(-0.00600255 0.110879 0)
(-0.00879884 0.111242 0)
(-0.00383832 0.114305 0)
(0.00369 0.115217 0)
(0.0110559 0.109217 0)
(0.00990691 0.107025 0)
(0.00445336 0.107297 0)
(0.000800308 0.105254 0)
(-0.000199071 0.104285 0)
(-0.00711073 0.100285 0)
(-0.00341511 0.107032 0)
(0.00642547 0.104562 0)
(0.00748892 0.0984856 0)
(0.00319433 0.0966824 0)
(0.00209691 0.0925572 0)
(0.000408619 0.0919249 0)
(-0.00177319 0.0956342 0)
(-0.00582856 0.0890608 0)
(0.000470666 0.100461 0)
(0.00539489 0.0842896 0)
(0.000340292 0.093499 0)
(-0.000722085 0.0851294 0)
(-0.00171876 0.0903297 0)
(0.00224381 0.0873677 0)
(0.0018558 0.0811999 0)
(0.000764046 0.0795359 0)
(0.000681625 0.0785431 0)
(-7.74372e-05 0.0775705 0)
(0.000210396 0.0784941 0)
(7.22618e-05 0.0773938 0)
(5.36626e-05 0.0780335 0)
(0.00025882 0.077362 0)
(-9.3692e-05 0.0775043 0)
(-4.3585e-05 0.0785583 0)
(-0.000938763 0.078488 0)
(-0.000774556 0.0852418 0)
(0.00167924 0.0852936 0)
(0.0018379 0.0808148 0)
(0.0002827 0.0807216 0)
(0.000235768 0.0836796 0)
(-0.00205988 0.0823538 0)
(-0.00139719 0.086156 0)
(-0.00266519 0.0883123 0)
(-0.00351626 0.0976617 0)
(-0.00796718 0.0912647 0)
(-0.00289413 0.10608 0)
(0.00535029 0.0969463 0)
(-0.00444832 0.10258 0)
(-0.00394514 0.106695 0)
(0.00458871 0.106192 0)
(0.00746814 0.10117 0)
(0.00224386 0.104149 0)
(-0.000889141 0.105464 0)
(-0.00234165 0.106634 0)
(-0.00795741 0.108026 0)
(-0.0120356 0.107439 0)
(-0.00520916 0.114751 0)
(0.00304982 0.114961 0)
(0.00850426 0.111524 0)
(0.00841924 0.111063 0)
(0.00403364 0.109583 0)
(0.00112673 0.111325 0)
(0.000809738 0.113695 0)
(-0.00251303 0.11531 0)
(-0.00922214 0.114015 0)
(-0.00893709 0.118172 0)
(-0.00370751 0.119702 0)
(0.0046286 0.115854 0)
(0.00355151 0.116112 0)
(0.00285799 0.117135 0)
(0.000688547 0.118947 0)
(-0.00354142 0.118425 0)
(-0.000966715 0.120912 0)
(0.00711382 0.118595 0)
(0.00364647 0.118847 0)
(0.00581869 0.118426 0)
(0.00754459 0.116417 0)
(0.000950259 0.117548 0)
(0.00220954 0.118269 0)
(0.0011001 0.115926 0)
(0.00720989 0.246961 0)
(0.0091899 0.255661 0)
(-0.00313229 0.254874 0)
(-0.0122386 0.255806 0)
(-0.00191074 0.250534 0)
(-0.0101846 0.257998 0)
(-0.0179723 0.251463 0)
(-0.00376731 0.240779 0)
(0.00836494 0.24725 0)
(0.00816333 0.255649 0)
(-0.00241478 0.255201 0)
(-0.0139568 0.255047 0)
(-0.0185588 0.249571 0)
(-0.00329871 0.240748 0)
(0.0141938 0.241106 0)
(0.0231961 0.251929 0)
(0.0157856 0.256215 0)
(0.00468971 0.254283 0)
(-0.000439473 0.253061 0)
(-0.00368638 0.25374 0)
(-0.0129676 0.254532 0)
(-0.0168197 0.250276 0)
(-0.0072208 0.246269 0)
(0.00486348 0.244865 0)
(0.0148204 0.249751 0)
(0.0167139 0.253314 0)
(0.0078945 0.253725 0)
(0.00121348 0.252395 0)
(-0.00521 0.253024 0)
(-0.0124805 0.252759 0)
(-0.00581663 0.248213 0)
(0.00716051 0.248821 0)
(0.0102834 0.252122 0)
(0.00356772 0.25204 0)
(0.0012086 0.252201 0)
(0.00171913 0.251584 0)
(-0.00393644 0.251898 0)
(-0.0083642 0.251188 0)
(-5.17392e-05 0.249969 0)
(0.00700298 0.25145 0)
(0.00116722 0.251499 0)
(-0.00244529 0.251029 0)
(-0.00227631 0.250945 0)
(0.00191715 0.250669 0)
(0.00178775 0.251038 0)
(0.000601634 0.250835 0)
(0.000602398 0.250765 0)
(-0.000111624 0.250662 0)
(0.000253728 0.250683 0)
(4.39599e-05 0.250633 0)
(6.54626e-05 0.250652 0)
(0.000278947 0.250642 0)
(-6.37215e-06 0.250652 0)
(2.53734e-05 0.250742 0)
(-0.000740647 0.250754 0)
(-0.000532317 0.250582 0)
(0.00187768 0.250591 0)
(0.00201964 0.250978 0)
(0.000940052 0.250889 0)
(0.000586809 0.25126 0)
(-0.00213231 0.250945 0)
(-0.000947834 0.251964 0)
(0.000195734 0.251097 0)
(-0.00529271 0.251598 0)
(-0.0102219 0.251796 0)
(-0.00187133 0.249023 0)
(0.00864711 0.251771 0)
(-0.00612611 0.253056 0)
(-0.00542304 0.249161 0)
(0.00697698 0.248809 0)
(0.0128116 0.252383 0)
(0.00726425 0.253161 0)
(5.93144e-05 0.252198 0)
(-0.00512276 0.253343 0)
(-0.0149225 0.253625 0)
(-0.0163789 0.251193 0)
(-0.00694343 0.245255 0)
(0.00537449 0.245324 0)
(0.0154618 0.248707 0)
(0.0163918 0.252783 0)
(0.00916372 0.25406 0)
(0.00527639 0.253524 0)
(4.70843e-05 0.253297 0)
(-0.00965524 0.255666 0)
(-0.0184014 0.253891 0)
(-0.0141476 0.245251 0)
(-0.0018399 0.24125 0)
(0.0125469 0.247639 0)
(0.0131771 0.253537 0)
(0.00461311 0.255242 0)
(-0.00661318 0.256215 0)
(-0.0122781 0.251236 0)
(-0.0042862 0.240996 0)
(0.0131795 0.24459 0)
(0.00893341 0.252236 0)
(0.00759714 0.247098 0)
(0.0183745 0.253849 0)
(0.0113067 0.256372 0)
(0.00357411 0.254055 0)
(-0.000905572 0.25472 0)
(-0.00151582 0.237152 0)
(-0.000154796 0.251713 0)
(-0.0050316 0.255287 0)
(-0.00800918 0.241787 0)
(-0.00285804 0.2442 0)
(-0.00187138 0.255076 0)
(-0.0114467 0.239868 0)
(-0.00591576 0.236146 0)
(0.00413336 0.239316 0)
(0.00283955 0.25071 0)
(-0.00245032 0.254861 0)
(-0.0124115 0.250794 0)
(-0.0114585 0.235801 0)
(-0.00179891 0.235476 0)
(0.0118709 0.236261 0)
(0.0140505 0.238969 0)
(0.0101128 0.246887 0)
(0.00248145 0.245664 0)
(-0.00358101 0.239196 0)
(-0.00753274 0.237462 0)
(-0.0128417 0.239254 0)
(-0.0137153 0.234053 0)
(-0.00631768 0.234972 0)
(0.00401986 0.234842 0)
(0.0109972 0.230224 0)
(0.0102281 0.229933 0)
(0.00585101 0.233275 0)
(0.000139694 0.230247 0)
(-0.00637813 0.229242 0)
(-0.00885773 0.219575 0)
(-0.00542743 0.227297 0)
(0.00453946 0.224808 0)
(0.00569902 0.217937 0)
(0.00293199 0.217491 0)
(0.000332456 0.211907 0)
(-0.0011102 0.211805 0)
(-0.00364988 0.21584 0)
(-0.00576807 0.208165 0)
(-9.583e-05 0.220044 0)
(0.00336426 0.203363 0)
(4.08396e-05 0.213202 0)
(-0.00195063 0.20435 0)
(-0.00210106 0.208503 0)
(0.00145181 0.206186 0)
(0.00147778 0.20074 0)
(0.000512375 0.199244 0)
(0.000684641 0.19834 0)
(-0.000197265 0.197442 0)
(0.000254123 0.198313 0)
(3.90554e-05 0.197297 0)
(8.8387e-05 0.197882 0)
(0.000325202 0.19725 0)
(3.62417e-05 0.197393 0)
(0.000109381 0.198354 0)
(-0.000740567 0.198298 0)
(-0.000518806 0.204145 0)
(0.00223416 0.204214 0)
(0.00227771 0.200366 0)
(0.00127603 0.200283 0)
(0.000757308 0.202773 0)
(0.000577036 0.201781 0)
(-0.000826876 0.204624 0)
(-0.00143048 0.207126 0)
(-0.00310191 0.217671 0)
(-0.00517679 0.209671 0)
(-0.00265479 0.226002 0)
(0.00736774 0.216179 0)
(-0.00391444 0.22657 0)
(-0.00199317 0.227675 0)
(0.0066837 0.226394 0)
(0.00939574 0.220877 0)
(0.00791772 0.228448 0)
(0.00186349 0.230364 0)
(-0.00387361 0.233009 0)
(-0.00829029 0.232664 0)
(-0.0116202 0.228176 0)
(-0.00605183 0.23552 0)
(0.00552048 0.234469 0)
(0.0130331 0.23314 0)
(0.0154089 0.237689 0)
(0.0113825 0.235765 0)
(0.00840805 0.238253 0)
(0.002239 0.244668 0)
(-0.00455263 0.247804 0)
(-0.00973555 0.24052 0)
(-0.0107676 0.238304 0)
(-0.00196142 0.23686 0)
(0.00732972 0.235916 0)
(0.0106689 0.246299 0)
(0.00746013 0.252832 0)
(-0.000897214 0.254657 0)
(-0.00503172 0.245504 0)
(-0.00348721 0.236832 0)
(0.00832655 0.237503 0)
(0.00306208 0.250414 0)
(0.00628127 0.240062 0)
(0.0142926 0.242057 0)
(0.00698602 0.254069 0)
(0.00383642 0.25429 0)
(-0.000880505 0.244902 0)
(-0.00438036 0.276726 0)
(-0.00196869 0.287376 0)
(0.00123827 0.292657 0)
(-0.00392201 0.28372 0)
(-0.00471093 0.272766 0)
(0.00201071 0.289319 0)
(-0.0070106 0.279264 0)
(-0.00348025 0.259847 0)
(0.0054923 0.269304 0)
(0.00227351 0.289204 0)
(-0.00273797 0.296401 0)
(-0.0100145 0.290025 0)
(-0.0106944 0.272223 0)
(-0.00226631 0.259383 0)
(0.0108719 0.265447 0)
(0.0120354 0.280332 0)
(0.00766152 0.288981 0)
(0.00450982 0.29362 0)
(-0.000413607 0.291005 0)
(-0.0110763 0.289979 0)
(-0.0136384 0.287118 0)
(-0.013351 0.278347 0)
(-0.00700529 0.27091 0)
(0.00347109 0.271468 0)
(0.0105044 0.279731 0)
(0.00917412 0.286366 0)
(0.00516252 0.289236 0)
(0.00157143 0.290349 0)
(-0.00748703 0.28837 0)
(-0.0104972 0.287231 0)
(-0.00568202 0.278037 0)
(0.00370629 0.279581 0)
(0.00522659 0.287996 0)
(0.00367253 0.28881 0)
(0.00163605 0.288733 0)
(-0.00309155 0.288706 0)
(-0.0041085 0.288762 0)
(-0.00570143 0.287706 0)
(-0.000406722 0.282958 0)
(0.00425258 0.28974 0)
(-0.000175932 0.288522 0)
(-0.00207853 0.28961 0)
(-0.00213977 0.287644 0)
(0.00117067 0.288031 0)
(0.00138378 0.290027 0)
(0.000440085 0.290026 0)
(0.00060227 0.29004 0)
(-0.000205555 0.290012 0)
(0.000258264 0.289802 0)
(1.72874e-05 0.289985 0)
(8.97487e-05 0.289832 0)
(0.000314938 0.289986 0)
(0.000115207 0.290006 0)
(0.000174986 0.290017 0)
(-0.000544483 0.290052 0)
(-0.000296562 0.288414 0)
(0.0022868 0.288402 0)
(0.00229525 0.289838 0)
(0.000809406 0.289833 0)
(0.000954015 0.289966 0)
(0.00124195 0.289636 0)
(-0.00155206 0.289376 0)
(-0.00220848 0.289773 0)
(-0.00176088 0.288026 0)
(-0.00559738 0.288532 0)
(-0.00197411 0.279522 0)
(0.007686 0.288318 0)
(-0.00349989 0.28858 0)
(-0.00125772 0.279481 0)
(0.00695751 0.279184 0)
(0.010545 0.286429 0)
(0.00915759 0.28798 0)
(0.000515853 0.290006 0)
(-0.00331781 0.289704 0)
(-0.00539212 0.286874 0)
(-0.0116964 0.282447 0)
(-0.00514619 0.27132 0)
(0.00585104 0.270647 0)
(0.0129621 0.276132 0)
(0.0157466 0.283621 0)
(0.0147614 0.288382 0)
(0.00547923 0.290083 0)
(-0.000835579 0.293458 0)
(-0.00194146 0.2906 0)
(-0.00722794 0.284837 0)
(-0.00992758 0.271329 0)
(-0.00115705 0.264085 0)
(0.00704752 0.269638 0)
(0.00976743 0.282912 0)
(0.00780696 0.294322 0)
(0.00174499 0.294528 0)
(-0.00319116 0.280748 0)
(-0.00365239 0.261115 0)
(0.00627901 0.268971 0)
(0.00208941 0.282097 0)
(0.00750536 0.264853 0)
(0.0133185 0.279893 0)
(0.00644914 0.29127 0)
(0.00694611 0.296094 0)
(0.00369993 0.29045 0)
(-0.0010928 0.270192 0)
(0.002411 0.274399 0)
(0.00308525 0.285359 0)
(0.00124345 0.275489 0)
(0.000696046 0.263004 0)
(0.00457474 0.28234 0)
(-0.0009492 0.265557 0)
(-9.82338e-05 0.253435 0)
(0.00305477 0.260888 0)
(-4.63177e-05 0.283729 0)
(-0.00237057 0.294206 0)
(-0.00792617 0.283683 0)
(-0.00691462 0.256325 0)
(-0.00139409 0.248724 0)
(0.00710869 0.255848 0)
(0.00642834 0.265346 0)
(0.00258144 0.276954 0)
(-0.00186778 0.279007 0)
(-0.002765 0.278227 0)
(-0.0101433 0.275097 0)
(-0.0108831 0.268729 0)
(-0.0113512 0.259575 0)
(-0.00566643 0.255895 0)
(0.00148534 0.257349 0)
(0.00441625 0.256089 0)
(0.00270559 0.26183 0)
(0.00124037 0.266912 0)
(-0.0010918 0.267342 0)
(-0.00706566 0.265622 0)
(-0.00566036 0.251534 0)
(-0.00540364 0.253339 0)
(0.000975292 0.252739 0)
(0.00120756 0.251504 0)
(0.000862675 0.252896 0)
(-0.00042635 0.248286 0)
(-0.00286838 0.248725 0)
(-0.00320273 0.251313 0)
(-0.00419386 0.242473 0)
(-0.00070055 0.250224 0)
(0.000466148 0.238672 0)
(-0.000948416 0.250075 0)
(-0.00212227 0.241148 0)
(-0.00181407 0.243392 0)
(0.000490401 0.241496 0)
(0.000630724 0.237493 0)
(0.000125497 0.236265 0)
(0.000521112 0.235293 0)
(-0.000289213 0.234351 0)
(0.000208064 0.235088 0)
(-3.32603e-05 0.234123 0)
(0.00011269 0.23471 0)
(0.000340781 0.234116 0)
(0.000206819 0.234331 0)
(0.000293781 0.235346 0)
(-0.000309606 0.23523 0)
(-0.000149054 0.240086 0)
(0.00214196 0.240195 0)
(0.0022302 0.237286 0)
(0.00168569 0.237261 0)
(0.0010474 0.239068 0)
(0.00169916 0.238909 0)
(0.000354793 0.240703 0)
(-0.000668107 0.243315 0)
(7.33183e-06 0.253386 0)
(-0.00101503 0.243653 0)
(-0.00106431 0.253412 0)
(0.00623417 0.2515 0)
(-0.000607926 0.261125 0)
(0.00110697 0.255394 0)
(0.0064175 0.253207 0)
(0.00635358 0.252608 0)
(0.00845798 0.264023 0)
(0.00247303 0.267564 0)
(0.000860323 0.266272 0)
(-0.000709265 0.265813 0)
(-0.00395977 0.256297 0)
(-0.00205383 0.256478 0)
(0.00493021 0.256004 0)
(0.0113621 0.257173 0)
(0.0128109 0.265079 0)
(0.0129626 0.271867 0)
(0.00675969 0.276924 0)
(0.00506641 0.279072 0)
(0.0023049 0.278469 0)
(-0.0021248 0.270538 0)
(-0.0046252 0.261055 0)
(-0.000682168 0.253663 0)
(0.00510075 0.254465 0)
(0.00798818 0.272978 0)
(0.00890518 0.287221 0)
(0.00468989 0.290218 0)
(0.00171152 0.273942 0)
(-0.00209122 0.254954 0)
(0.00433865 0.257334 0)
(0.00145389 0.27534 0)
(0.00563166 0.254574 0)
(0.00815052 0.267623 0)
(0.00499071 0.28479 0)
(0.00239911 0.287114 0)
(0.00154143 0.287768 0)
(0.0028746 0.280295 0)
(0.00474599 0.287044 0)
(0.00512427 0.295004 0)
(0.00408161 0.289795 0)
(0.00283424 0.272311 0)
(0.00672618 0.292561 0)
(0.000641215 0.285452 0)
(0.000962211 0.263063 0)
(0.00261924 0.273378 0)
(-0.000692176 0.295409 0)
(-0.00137244 0.301246 0)
(-0.00473191 0.295121 0)
(-0.00478681 0.270683 0)
(-0.00136268 0.257011 0)
(0.00598706 0.262604 0)
(0.00400313 0.285303 0)
(-0.000345714 0.295206 0)
(-0.00364334 0.297336 0)
(-0.00340821 0.29798 0)
(-0.00774418 0.297037 0)
(-0.00974431 0.29046 0)
(-0.0113477 0.280177 0)
(-0.0056518 0.271075 0)
(0.000511528 0.271835 0)
(0.00401116 0.283115 0)
(-0.00038844 0.290261 0)
(0.000300461 0.293828 0)
(-0.00151301 0.296199 0)
(-0.0057647 0.293412 0)
(-0.0046342 0.290519 0)
(-0.00521125 0.280128 0)
(0.000781216 0.281815 0)
(0.00112278 0.292322 0)
(0.00121018 0.293424 0)
(-0.000809145 0.293975 0)
(-0.00405677 0.294001 0)
(-0.0025772 0.293564 0)
(-0.00390717 0.292113 0)
(-0.000875771 0.286118 0)
(0.00104166 0.294887 0)
(-0.00140864 0.293573 0)
(-0.00147795 0.294989 0)
(-0.00161061 0.292083 0)
(0.000518332 0.292719 0)
(0.000731894 0.295617 0)
(0.000157333 0.29567 0)
(0.000471372 0.295781 0)
(-0.000267862 0.295788 0)
(0.000149591 0.295412 0)
(-3.09328e-05 0.295769 0)
(0.000163484 0.295485 0)
(0.00033599 0.295749 0)
(0.000228816 0.295774 0)
(0.000312907 0.29575 0)
(-0.000292995 0.2958 0)
(-5.66827e-05 0.293258 0)
(0.00209408 0.293184 0)
(0.00221246 0.295407 0)
(0.00115926 0.295382 0)
(0.000786228 0.295524 0)
(0.00258219 0.295143 0)
(-0.000156941 0.294584 0)
(-0.00305723 0.295154 0)
(0.00103474 0.292827 0)
(-0.00104125 0.293488 0)
(-0.00044613 0.2816 0)
(0.00587597 0.29276 0)
(0.000100557 0.293406 0)
(0.00169667 0.281159 0)
(0.00648539 0.281684 0)
(0.00521866 0.289387 0)
(0.0067561 0.292924 0)
(0.0033431 0.295098 0)
(0.00152697 0.293791 0)
(0.00241287 0.291389 0)
(-0.00310998 0.286419 0)
(-0.000904628 0.271435 0)
(0.00494662 0.270268 0)
(0.0113242 0.27739 0)
(0.0117432 0.286191 0)
(0.0103467 0.293764 0)
(0.00652149 0.296881 0)
(0.00564026 0.297001 0)
(0.00407023 0.296575 0)
(0.000556531 0.291067 0)
(-0.00288332 0.272919 0)
(0.000115099 0.261449 0)
(0.00420862 0.268446 0)
(0.00547217 0.283434 0)
(0.00747504 0.299093 0)
(0.00600418 0.301294 0)
(0.00362196 0.287205 0)
(-0.000719767 0.263317 0)
(0.00424347 0.268546 0)
(0.00129091 0.284118 0)
(0.00532855 0.262414 0)
(0.0056748 0.283589 0)
(0.00256549 0.296225 0)
(1.42874e-05 0.298851 0)
(-0.000433801 0.298981 0)
(0.00405696 0.267389 0)
(0.00698965 0.277342 0)
(0.00687723 0.288452 0)
(0.00597879 0.283104 0)
(0.00486242 0.265715 0)
(0.00661982 0.287535 0)
(0.00176359 0.274278 0)
(0.00371705 0.258173 0)
(0.00207371 0.266924 0)
(-0.00136065 0.291029 0)
(-0.00109956 0.295522 0)
(-0.00353703 0.288584 0)
(-0.00337321 0.259247 0)
(-0.000630806 0.248469 0)
(0.00142638 0.256736 0)
(-0.00165661 0.272284 0)
(-0.00423867 0.284085 0)
(-0.00628826 0.285241 0)
(-0.00485877 0.28761 0)
(-0.00741538 0.284963 0)
(-0.00846369 0.276622 0)
(-0.00893295 0.264756 0)
(-0.00524472 0.257562 0)
(-0.000930094 0.259888 0)
(-0.00135613 0.263358 0)
(-0.00395625 0.271119 0)
(-0.00329781 0.274856 0)
(-0.00341067 0.277709 0)
(-0.00532954 0.275693 0)
(-0.00370987 0.260913 0)
(-0.00436891 0.260089 0)
(-0.00130123 0.260027 0)
(-0.00195707 0.261418 0)
(-0.0012977 0.263711 0)
(-0.00226675 0.261734 0)
(-0.00304274 0.261272 0)
(-0.00267635 0.262137 0)
(-0.00316929 0.254509 0)
(-0.00131641 0.259096 0)
(-0.00152306 0.251531 0)
(-0.00162051 0.262397 0)
(-0.00195932 0.254178 0)
(-0.00144967 0.255564 0)
(-0.000218757 0.253861 0)
(-0.000101645 0.251007 0)
(-0.000241733 0.250019 0)
(0.000309583 0.24919 0)
(-0.000359366 0.248335 0)
(0.000126495 0.248974 0)
(-9.04914e-05 0.248074 0)
(0.000146658 0.248621 0)
(0.000341604 0.24807 0)
(0.000369034 0.24824 0)
(0.000451061 0.249289 0)
(0.000135243 0.249104 0)
(0.000175805 0.253085 0)
(0.00185519 0.253178 0)
(0.00198233 0.251202 0)
(0.00205881 0.25124 0)
(0.00120509 0.251657 0)
(0.00210234 0.252749 0)
(0.00105462 0.255148 0)
(0.000890424 0.254938 0)
(0.00181875 0.263696 0)
(0.0020214 0.255354 0)
(0.000757611 0.260444 0)
(0.00470301 0.262388 0)
(0.00257343 0.271099 0)
(0.00296658 0.262551 0)
(0.00522994 0.260586 0)
(0.00485436 0.262083 0)
(0.00628166 0.273662 0)
(0.00472085 0.277809 0)
(0.00493329 0.273445 0)
(0.00512521 0.275017 0)
(0.00301572 0.264923 0)
(0.00202317 0.259911 0)
(0.00444166 0.25751 0)
(0.00907343 0.261225 0)
(0.00973893 0.272077 0)
(0.00945286 0.280766 0)
(0.00719368 0.285709 0)
(0.00771141 0.285302 0)
(0.0073274 0.285271 0)
(0.00467574 0.279336 0)
(0.0022453 0.264853 0)
(0.00112991 0.255467 0)
(0.00416099 0.256806 0)
(0.00397275 0.27503 0)
(0.00760838 0.290248 0)
(0.00765889 0.29566 0)
(0.00606472 0.281649 0)
(0.00103761 0.259314 0)
(0.00373927 0.260589 0)
(0.00208473 0.279032 0)
(0.00344023 0.255791 0)
(0.00329908 0.275295 0)
(0.000752317 0.292193 0)
(-0.00175111 0.2927 0)
(-0.00050543 0.291376 0)
(0.00450405 0.263899 0)
(0.00556162 0.284885 0)
(0.00569582 0.295793 0)
(0.00505641 0.293726 0)
(0.00441998 0.273881 0)
(0.00652412 0.296949 0)
(0.00170742 0.28835 0)
(0.00397358 0.265162 0)
(0.00164916 0.279595 0)
(-0.00207112 0.297741 0)
(-0.00116132 0.304286 0)
(-0.000731263 0.297528 0)
(-0.00176706 0.270184 0)
(-0.000769617 0.254739 0)
(0.000583821 0.264714 0)
(-0.00292545 0.288243 0)
(-0.00745378 0.296155 0)
(-0.00852472 0.297095 0)
(-0.00489297 0.298975 0)
(-0.00517685 0.299261 0)
(-0.0069664 0.290744 0)
(-0.00781718 0.278176 0)
(-0.00479955 0.26699 0)
(-0.00228235 0.268951 0)
(-0.00159168 0.284891 0)
(-0.00559357 0.290875 0)
(-0.00449336 0.292767 0)
(-0.00452148 0.295287 0)
(-0.00337423 0.294062 0)
(-0.00257115 0.290285 0)
(-0.00421813 0.280243 0)
(-0.00103363 0.281552 0)
(-0.0016525 0.292425 0)
(-0.00180099 0.29368 0)
(-0.00242953 0.294626 0)
(-0.00289619 0.294403 0)
(-0.0018789 0.293817 0)
(-0.00319169 0.292133 0)
(-0.00139735 0.28593 0)
(-0.00116882 0.29528 0)
(-0.00189529 0.29403 0)
(-0.0011398 0.295378 0)
(-0.00131091 0.291956 0)
(3.40397e-05 0.292723 0)
(0.000177741 0.296089 0)
(-0.000128601 0.296079 0)
(0.000297378 0.296284 0)
(-0.000330096 0.296368 0)
(8.1425e-05 0.295862 0)
(-7.51938e-05 0.296366 0)
(0.000187131 0.295919 0)
(0.000348838 0.296239 0)
(0.000363004 0.296287 0)
(0.00043068 0.296261 0)
(9.3542e-06 0.296337 0)
(0.000156458 0.293254 0)
(0.00179757 0.293122 0)
(0.00198492 0.295851 0)
(0.00198185 0.295932 0)
(0.000889116 0.295846 0)
(0.00202656 0.295801 0)
(0.00102517 0.294934 0)
(-0.00147845 0.295139 0)
(0.00154636 0.293072 0)
(0.00154764 0.294081 0)
(0.00103364 0.281378 0)
(0.00409223 0.292529 0)
(0.00292368 0.294012 0)
(0.00328673 0.280636 0)
(0.00547618 0.281905 0)
(0.00408517 0.289136 0)
(0.00385019 0.293407 0)
(0.00548059 0.295533 0)
(0.00575275 0.294294 0)
(0.00696039 0.292102 0)
(0.00362049 0.287914 0)
(0.0027991 0.271987 0)
(0.0047568 0.266183 0)
(0.00813256 0.274897 0)
(0.00802688 0.28482 0)
(0.00678496 0.295599 0)
(0.0061116 0.297586 0)
(0.00900899 0.296354 0)
(0.00969888 0.297458 0)
(0.00603337 0.292701 0)
(0.00327388 0.27573 0)
(0.00170733 0.260886 0)
(0.00361329 0.267165 0)
(0.00203989 0.283069 0)
(0.00581539 0.293194 0)
(0.00737408 0.300624 0)
(0.00593401 0.292418 0)
(0.00222771 0.268213 0)
(0.00355407 0.269639 0)
(0.00225409 0.286336 0)
(0.00294489 0.262295 0)
(0.00214837 0.287697 0)
(-0.00160769 0.299352 0)
(-0.00305526 0.300026 0)
(-0.00144349 0.296721 0)
(0.00323901 0.258863 0)
(0.00340793 0.278356 0)
(0.00444875 0.290625 0)
(0.00259512 0.287466 0)
(0.00408926 0.268117 0)
(0.00411561 0.293218 0)
(0.000891416 0.27939 0)
(0.00484371 0.263516 0)
(0.000799277 0.274331 0)
(-0.00233581 0.295122 0)
(-0.00199755 0.298339 0)
(-0.000742817 0.292911 0)
(-0.00120684 0.263569 0)
(-0.000414181 0.253446 0)
(-0.00298269 0.262331 0)
(-0.00600411 0.280522 0)
(-0.00920822 0.289777 0)
(-0.00907878 0.287929 0)
(-0.00598096 0.288679 0)
(-0.00498585 0.289611 0)
(-0.00503734 0.282115 0)
(-0.00630589 0.268779 0)
(-0.00461993 0.262291 0)
(-0.00396043 0.264572 0)
(-0.00484214 0.26974 0)
(-0.00680912 0.277831 0)
(-0.00694072 0.277212 0)
(-0.00580797 0.283608 0)
(-0.00375994 0.280552 0)
(-0.0030974 0.268354 0)
(-0.00317392 0.265615 0)
(-0.00267577 0.265728 0)
(-0.00394091 0.268958 0)
(-0.00323638 0.271286 0)
(-0.00331378 0.270459 0)
(-0.00240811 0.2694 0)
(-0.00255267 0.269844 0)
(-0.00260378 0.263361 0)
(-0.00187701 0.265628 0)
(-0.00261742 0.261134 0)
(-0.00178449 0.270324 0)
(-0.00195804 0.263236 0)
(-0.00112163 0.264158 0)
(-0.000808681 0.262811 0)
(-0.00061446 0.260795 0)
(-0.000458949 0.260075 0)
(7.4871e-05 0.259419 0)
(-0.000428765 0.258736 0)
(7.71895e-05 0.259314 0)
(-0.000104092 0.25844 0)
(0.000161343 0.258986 0)
(0.000274588 0.258471 0)
(0.000542845 0.258629 0)
(0.000598739 0.259588 0)
(0.000363942 0.259369 0)
(0.000500016 0.262353 0)
(0.00167015 0.262544 0)
(0.00171713 0.261074 0)
(0.00234975 0.261529 0)
(0.00149126 0.260889 0)
(0.0020197 0.262371 0)
(0.00177747 0.265553 0)
(0.00225989 0.263229 0)
(0.0021518 0.270157 0)
(0.00355286 0.264171 0)
(0.00214506 0.266001 0)
(0.00353541 0.269543 0)
(0.00481987 0.277394 0)
(0.00398954 0.267678 0)
(0.00402879 0.26641 0)
(0.00445566 0.26972 0)
(0.00429341 0.278748 0)
(0.00591102 0.282433 0)
(0.00750186 0.278385 0)
(0.00813327 0.280432 0)
(0.00703998 0.272066 0)
(0.00506077 0.26402 0)
(0.00473898 0.262358 0)
(0.00681216 0.265196 0)
(0.00631052 0.277147 0)
(0.00590624 0.285274 0)
(0.00666357 0.289073 0)
(0.00901675 0.286835 0)
(0.0106107 0.289641 0)
(0.00882822 0.285621 0)
(0.00672252 0.270579 0)
(0.00273509 0.259749 0)
(0.00375582 0.260925 0)
(0.00203366 0.277048 0)
(0.00573573 0.289522 0)
(0.00681855 0.29859 0)
(0.005853 0.288825 0)
(0.00296395 0.265569 0)
(0.003064 0.264534 0)
(0.00298856 0.282992 0)
(0.00109432 0.258858 0)
(0.000635132 0.283478 0)
(-0.0022645 0.297543 0)
(-0.00273193 0.295112 0)
(-0.00063284 0.289337 0)
(0.00287515 0.259364 0)
(0.00170721 0.280875 0)
(0.00209809 0.292559 0)
(0.00153825 0.294077 0)
(0.00305728 0.268588 0)
(0.00225695 0.298484 0)
(0.000322261 0.285868 0)
(0.0043644 0.263916 0)
(-0.000139178 0.283575 0)
(-0.00305337 0.299693 0)
(-0.0017348 0.299471 0)
(0.000377723 0.293056 0)
(-0.00178001 0.26932 0)
(-0.000293072 0.256677 0)
(-0.0029917 0.267741 0)
(-0.00688805 0.289518 0)
(-0.0100108 0.296805 0)
(-0.00931237 0.293592 0)
(-0.00559319 0.294356 0)
(-0.0030618 0.294503 0)
(-0.003829 0.289438 0)
(-0.00570522 0.277127 0)
(-0.0045303 0.266267 0)
(-0.00359692 0.268886 0)
(-0.00396923 0.284201 0)
(-0.00745106 0.289138 0)
(-0.0076464 0.29218 0)
(-0.0066246 0.293363 0)
(-0.001897 0.2913 0)
(-0.00245538 0.287668 0)
(-0.00310396 0.278206 0)
(-0.00219792 0.279629 0)
(-0.00350632 0.289757 0)
(-0.00364156 0.290914 0)
(-0.00300703 0.291862 0)
(-0.00202801 0.291596 0)
(-0.00217391 0.291161 0)
(-0.0028181 0.289314 0)
(-0.00183344 0.283376 0)
(-0.00236794 0.292394 0)
(-0.00195832 0.291323 0)
(-0.0012906 0.292446 0)
(-0.0011206 0.289063 0)
(-0.000348277 0.289728 0)
(-0.000259937 0.293025 0)
(-0.000342274 0.293114 0)
(0.000127803 0.293542 0)
(-0.000414876 0.293505 0)
(3.68308e-05 0.292895 0)
(-6.34388e-05 0.293534 0)
(0.000156461 0.292899 0)
(0.000313145 0.293422 0)
(0.000527732 0.293204 0)
(0.000542782 0.293505 0)
(0.000184507 0.29339 0)
(0.000369552 0.289979 0)
(0.0015922 0.2899 0)
(0.0019336 0.293005 0)
(0.00234475 0.293203 0)
(0.00115159 0.293019 0)
(0.00125939 0.292987 0)
(0.00185946 0.292246 0)
(0.00097406 0.292213 0)
(0.00206276 0.290252 0)
(0.00255061 0.29115 0)
(0.00195313 0.279271 0)
(0.00301819 0.289121 0)
(0.00467515 0.291574 0)
(0.00409986 0.27889 0)
(0.0042234 0.279734 0)
(0.00420178 0.286686 0)
(0.00264964 0.290917 0)
(0.00644872 0.293065 0)
(0.00796287 0.289984 0)
(0.00858672 0.290177 0)
(0.00682095 0.286905 0)
(0.00475505 0.271502 0)
(0.00453958 0.265947 0)
(0.00607986 0.273541 0)
(0.00551093 0.284233 0)
(0.00432257 0.292112 0)
(0.00584377 0.293269 0)
(0.00893775 0.293943 0)
(0.0109071 0.296015 0)
(0.00917496 0.293459 0)
(0.00703 0.278097 0)
(0.00293848 0.263754 0)
(0.00418576 0.267459 0)
(0.000985042 0.278521 0)
(0.00384378 0.289495 0)
(0.00681542 0.300604 0)
(0.00562561 0.293406 0)
(0.00317254 0.27059 0)
(0.00287281 0.26946 0)
(0.00298849 0.287384 0)
(0.00131257 0.264599 0)
(0.000259399 0.289424 0)
(-0.00303975 0.301124 0)
(-0.00292445 0.295027 0)
(-0.000819444 0.292802 0)
(0.00204013 0.256282 0)
(-0.000158452 0.280136 0)
(-0.00119975 0.290269 0)
(0.00107383 0.289162 0)
(0.0022165 0.268144 0)
(-0.000971361 0.296994 0)
(0.000505179 0.280636 0)
(0.0036263 0.265204 0)
(-0.000859581 0.281496 0)
(-0.00292055 0.298199 0)
(-0.00227825 0.296497 0)
(-1.40154e-05 0.294569 0)
(-0.00225021 0.266879 0)
(-0.00127192 0.253779 0)
(-0.00467594 0.268822 0)
(-0.0071104 0.287328 0)
(-0.0100717 0.292955 0)
(-0.00902545 0.286869 0)
(-0.00553373 0.287854 0)
(-0.00234021 0.291983 0)
(-0.00311542 0.285369 0)
(-0.00445726 0.27094 0)
(-0.00381534 0.261255 0)
(-0.00572399 0.264907 0)
(-0.00691632 0.273964 0)
(-0.00767605 0.281952 0)
(-0.00885244 0.281202 0)
(-0.00682492 0.283005 0)
(-0.00284508 0.282034 0)
(-0.00305236 0.273192 0)
(-0.0023433 0.269009 0)
(-0.00347565 0.269641 0)
(-0.00461518 0.27388 0)
(-0.0045591 0.275469 0)
(-0.00380681 0.274838 0)
(-0.00182908 0.274046 0)
(-0.00273911 0.274781 0)
(-0.00215013 0.269114 0)
(-0.00211676 0.269816 0)
(-0.00317903 0.267742 0)
(-0.00159689 0.27498 0)
(-0.00197667 0.269223 0)
(-0.000993884 0.269713 0)
(-0.00115445 0.268599 0)
(-0.000962478 0.267445 0)
(-0.000833735 0.266783 0)
(-0.00016997 0.266273 0)
(-0.000457686 0.265826 0)
(-6.35577e-05 0.266265 0)
(1.67102e-05 0.265519 0)
(0.000180768 0.266011 0)
(0.000296946 0.265583 0)
(0.000575762 0.265729 0)
(0.000699043 0.266533 0)
(0.000908164 0.266278 0)
(0.000835104 0.268543 0)
(0.0013903 0.268599 0)
(0.00117406 0.26756 0)
(0.00216296 0.268178 0)
(0.00188676 0.267565 0)
(0.00201524 0.268414 0)
(0.00222745 0.271706 0)
(0.00347737 0.268879 0)
(0.00238114 0.274116 0)
(0.00376854 0.269563 0)
(0.00292526 0.269435 0)
(0.00318985 0.273345 0)
(0.00562731 0.28063 0)
(0.00450739 0.271213 0)
(0.00335177 0.269872 0)
(0.00445957 0.274456 0)
(0.00349279 0.28101 0)
(0.00666711 0.283509 0)
(0.00916756 0.281687 0)
(0.00860345 0.283575 0)
(0.00850816 0.2765 0)
(0.00652779 0.267196 0)
(0.00475366 0.261527 0)
(0.00564629 0.266511 0)
(0.00518048 0.279811 0)
(0.00370724 0.287907 0)
(0.00498688 0.286327 0)
(0.00778032 0.285985 0)
(0.0110787 0.291865 0)
(0.00960256 0.290286 0)
(0.00784281 0.2767 0)
(0.00426637 0.262366 0)
(0.00485891 0.264422 0)
(0.00207347 0.281112 0)
(0.00387014 0.283804 0)
(0.00616815 0.296593 0)
(0.00503076 0.290982 0)
(0.00360349 0.268836 0)
(0.0027181 0.266607 0)
(0.00347274 0.286755 0)
(0.000612369 0.264121 0)
(0.000425166 0.288864 0)
(-0.00298245 0.301913 0)
(-0.00398414 0.294376 0)
(-0.00270303 0.286964 0)
(0.00119521 0.26052 0)
(-0.000124388 0.288085 0)
(-0.00166843 0.292682 0)
(-0.00127125 0.288722 0)
(2.84799e-05 0.273095 0)
(-0.00293366 0.300401 0)
(-0.00109779 0.280923 0)
(0.00191873 0.268611 0)
(-0.0015836 0.288814 0)
(-0.00387407 0.302935 0)
(-0.00348597 0.299348 0)
(1.08625e-05 0.297326 0)
(-0.00129517 0.272362 0)
(-0.00117377 0.26145 0)
(-0.00426881 0.273121 0)
(-0.00677077 0.294442 0)
(-0.00967281 0.298609 0)
(-0.00906611 0.293646 0)
(-0.00569972 0.292666 0)
(-0.00134857 0.295435 0)
(-0.00181928 0.291933 0)
(-0.00412247 0.278977 0)
(-0.00399406 0.269682 0)
(-0.00501301 0.272982 0)
(-0.00569115 0.285811 0)
(-0.00775522 0.290195 0)
(-0.00852145 0.291759 0)
(-0.00665715 0.291887 0)
(-0.00201809 0.290959 0)
(-0.00308078 0.287777 0)
(-0.00237338 0.279651 0)
(-0.00311361 0.280758 0)
(-0.00443451 0.290606 0)
(-0.00430137 0.291564 0)
(-0.00317844 0.291556 0)
(-0.00181575 0.291584 0)
(-0.0022474 0.291916 0)
(-0.00242662 0.289025 0)
(-0.0021324 0.284427 0)
(-0.00278667 0.292212 0)
(-0.00195236 0.291959 0)
(-0.00130558 0.29263 0)
(-0.00100066 0.289038 0)
(-0.000862864 0.290101 0)
(-0.000630917 0.293158 0)
(-0.000434506 0.293225 0)
(-2.74091e-05 0.293199 0)
(-0.000534395 0.293458 0)
(3.54622e-05 0.292692 0)
(-0.000110472 0.29339 0)
(0.000195546 0.293083 0)
(0.000302918 0.293133 0)
(0.000542795 0.293421 0)
(0.000636488 0.293173 0)
(0.000344207 0.293587 0)
(0.000657354 0.290182 0)
(0.00155262 0.290102 0)
(0.00149901 0.293082 0)
(0.00230564 0.292922 0)
(0.00167168 0.292714 0)
(0.00114659 0.293255 0)
(0.00209454 0.292083 0)
(0.0025536 0.292592 0)
(0.00211711 0.290884 0)
(0.0028557 0.291408 0)
(0.00269258 0.279998 0)
(0.00280323 0.289168 0)
(0.00535236 0.291986 0)
(0.00437901 0.280432 0)
(0.0036374 0.280814 0)
(0.00460595 0.287065 0)
(0.00304397 0.290954 0)
(0.0056661 0.290135 0)
(0.00869338 0.291349 0)
(0.00890516 0.290913 0)
(0.00747129 0.288339 0)
(0.00597721 0.274771 0)
(0.00482451 0.269712 0)
(0.00502684 0.275862 0)
(0.00459199 0.287348 0)
(0.00291649 0.294739 0)
(0.0047514 0.294368 0)
(0.00706614 0.290283 0)
(0.0102211 0.295345 0)
(0.00913151 0.296923 0)
(0.00722178 0.282561 0)
(0.00429944 0.268242 0)
(0.00400013 0.271287 0)
(0.00250912 0.282826 0)
(0.00437463 0.289838 0)
(0.00554018 0.30202 0)
(0.00427631 0.296572 0)