/*--------------------------------*- C++ -*----------------------------------*\
| =========                 |                                                 |
| \\      /  F ield         | OpenFOAM: The Open Source CFD Toolbox           |
|  \\    /   O peration     | Version:  2312                                  |
|   \\  /    A nd           | Website:  www.openfoam.com                      |
|    \\/     M anipulation  |                                                 |
\*---------------------------------------------------------------------------*/
FoamFile
{
    version     2.0;
    format      ascii;
    arch        "LSB;label=32;scalar=64";
    class       volVectorField;
    location    "3";
    object      U.waterMean;
}
// * * * * * * * * * * * * * * * * * * * * * * * * * * * * * * * * * * * * * //

dimensions      [0 1 -1 0 0 0 0];

internalField   nonuniform List<vector> 
50000
(
(0.00841734 -0.0566218 0)
(-0.000201344 -0.0699777 0)
(0.000100648 -0.0770874 0)
(-0.0103082 -0.0740783 0)
(-0.00386611 -0.0635559 0)
(-0.010233 -0.0654382 0)
(-0.0182267 -0.0658824 0)
(-0.00515801 -0.0495763 0)
(0.00776642 -0.0592472 0)
(0.00480746 -0.0679351 0)
(-0.00633256 -0.0710089 0)
(-0.0138851 -0.0726076 0)
(-0.0191709 -0.0716103 0)
(-0.00279999 -0.0555735 0)
(0.0187028 -0.0547188 0)
(0.0282342 -0.0731385 0)
(0.0202027 -0.0767526 0)
(0.00688091 -0.0811275 0)
(0.000403466 -0.0894572 0)
(-0.00442189 -0.0921839 0)
(-0.0152843 -0.0888806 0)
(-0.0193663 -0.0844375 0)
(-0.00876414 -0.072222 0)
(0.00684335 -0.0710815 0)
(0.020664 -0.08741 0)
(0.0199882 -0.100021 0)
(0.0116319 -0.100057 0)
(0.00212742 -0.10436 0)
(-0.00265132 -0.107009 0)
(-0.0130872 -0.11552 0)
(-0.00753269 -0.0924058 0)
(0.0113954 -0.0984893 0)
(0.0133629 -0.119598 0)
(0.00629919 -0.123087 0)
(0.00371914 -0.130415 0)
(0.000836445 -0.131561 0)
(-0.00363087 -0.125763 0)
(-0.00999236 -0.133812 0)
(0.000453398 -0.109675 0)
(0.00888865 -0.142301 0)
(0.000935736 -0.129728 0)
(-0.00129472 -0.142266 0)
(-0.00293915 -0.133521 0)
(0.00363508 -0.137368 0)
(0.00295001 -0.147178 0)
(0.00121894 -0.149445 0)
(0.00106542 -0.150691 0)
(-0.000155679 -0.151931 0)
(0.000343831 -0.150555 0)
(0.000112922 -0.152101 0)
(9.68855e-05 -0.151169 0)
(0.000432562 -0.152126 0)
(-0.000104671 -0.151953 0)
(-2.94355e-05 -0.15069 0)
(-0.0014411 -0.150701 0)
(-0.00117977 -0.141088 0)
(0.00276453 -0.140982 0)
(0.00301831 -0.14781 0)
(0.000526149 -0.148048 0)
(0.000420687 -0.14427 0)
(-0.00342315 -0.145883 0)
(-0.0022413 -0.140508 0)
(-0.00435886 -0.137788 0)
(-0.0066245 -0.123009 0)
(-0.0133974 -0.130656 0)
(-0.00467645 -0.0966179 0)
(0.00925162 -0.124213 0)
(-0.00856169 -0.109546 0)
(-0.00778801 -0.0951703 0)
(0.00958302 -0.0946024 0)
(0.0139949 -0.112966 0)
(0.00627941 -0.107297 0)
(-0.00113472 -0.104305 0)
(-0.00736463 -0.101234 0)
(-0.0177291 -0.0977921 0)
(-0.0224014 -0.0933582 0)
(-0.0096505 -0.0728046 0)
(0.00690215 -0.0714185 0)
(0.0182974 -0.0824139 0)
(0.0198751 -0.086549 0)
(0.0117873 -0.0925365 0)
(0.0048281 -0.0909115 0)
(-0.000261904 -0.0836241 0)
(-0.0112475 -0.0769994 0)
(-0.021736 -0.0766582 0)
(-0.0183185 -0.0600272 0)
(-0.0034521 -0.0563327 0)
(0.0124613 -0.0683794 0)
(0.0122382 -0.0728874 0)
(0.00655765 -0.073198 0)
(-0.00442228 -0.06617 0)
(-0.0119256 -0.0620139 0)
(-0.00491599 -0.0505421 0)
(0.0142929 -0.0614295 0)
(0.0115895 -0.0613495 0)
(0.0121254 -0.0590428 0)
(0.0190326 -0.0675407 0)
(0.0106821 -0.0698601 0)
(0.00667913 -0.070395 0)
(0.00161589 -0.0763056 0)
(0.00511567 0.0277425 0)
(0.0149117 0.0566673 0)
(-0.0116965 0.0635355 0)
(-0.0193458 0.0578025 0)
(-0.00639838 0.0406402 0)
(-0.0173928 0.0564146 0)
(-0.0234155 0.0414758 0)
(-0.00531115 0.0116947 0)
(0.0114108 0.0310129 0)
(0.0155743 0.0562207 0)
(-0.00162006 0.0601243 0)
(-0.0257299 0.0593219 0)
(-0.0244742 0.044933 0)
(-0.00487425 0.0157495 0)
(0.0137617 0.0190758 0)
(0.0290439 0.0521675 0)
(0.0266417 0.0647947 0)
(0.00948683 0.0679469 0)
(-0.00378698 0.0725829 0)
(-0.00980455 0.076516 0)
(-0.0215002 0.0730057 0)
(-0.0244844 0.0610512 0)
(-0.00915914 0.0427937 0)
(0.00479745 0.0409916 0)
(0.0169557 0.0627844 0)
(0.0254354 0.0814748 0)
(0.0129442 0.0831772 0)
(0.00134555 0.0864491 0)
(-0.0129187 0.0889652 0)
(-0.0197851 0.095772 0)
(-0.00812245 0.0659255 0)
(0.00697591 0.0730024 0)
(0.0139959 0.099645 0)
(0.00335534 0.10349 0)
(-0.000719316 0.110276 0)
(0.00465158 0.111509 0)
(-0.00778847 0.106065 0)
(-0.0123425 0.112374 0)
(-0.000822923 0.0856675 0)
(0.00967898 0.121682 0)
(0.00262767 0.109621 0)
(-0.00632744 0.121777 0)
(-0.00310523 0.11191 0)
(0.00102089 0.115747 0)
(0.00131945 0.126726 0)
(1.07633e-05 0.128909 0)
(0.000283782 0.130153 0)
(-0.000221412 0.131384 0)
(0.00036408 0.129878 0)
(-3.76714e-05 0.131525 0)
(0.000118525 0.130509 0)
(0.000321344 0.131559 0)
(0.000256951 0.131387 0)
(0.000268524 0.130143 0)
(-2.85095e-05 0.130185 0)
(0.000128781 0.119718 0)
(0.00216365 0.119616 0)
(0.00222498 0.12734 0)
(0.0026777 0.127542 0)
(0.00151997 0.123922 0)
(-0.00213691 0.125349 0)
(0.000203375 0.119825 0)
(0.00706746 0.117487 0)
(-0.00833179 0.10293 0)
(-0.0133209 0.109842 0)
(-0.000704459 0.0712051 0)
(0.0140886 0.103926 0)
(-0.00817274 0.0914176 0)
(-0.00592858 0.0701952 0)
(0.00942618 0.0687365 0)
(0.0200054 0.0927685 0)
(0.0149608 0.0893252 0)
(0.00254215 0.086169 0)
(-0.00976692 0.0840468 0)
(-0.0244884 0.0805695 0)
(-0.0192486 0.0703764 0)
(-0.00734447 0.0425638 0)
(0.00727072 0.0414503 0)
(0.0215838 0.057042 0)
(0.0247355 0.0676413 0)
(0.0159487 0.0768252 0)
(0.0138395 0.0741564 0)
(0.000357914 0.0688755 0)
(-0.0185718 0.0648381 0)
(-0.0258252 0.059365 0)
(-0.0150892 0.0303897 0)
(-4.74747e-05 0.0201514 0)
(0.01769 0.0389775 0)
(0.0229745 0.0555247 0)
(0.00915048 0.0613057 0)
(-0.0109385 0.0569642 0)
(-0.0164719 0.0409758 0)
(-0.00642107 0.0120278 0)
(0.0156938 0.0286844 0)
(0.0113998 0.0433384 0)
(0.00994115 0.0307087 0)
(0.0259681 0.0491596 0)
(0.0213999 0.0585562 0)
(0.00799834 0.0574495 0)
(-0.00229626 0.0626556 0)
(-0.0123753 -0.0466181 0)
(-0.00570724 -0.019637 0)
(-0.00721911 -0.0110328 0)
(-0.00310015 -0.0439163 0)
(-0.00538805 -0.0353411 0)
(0.00422387 -0.0158613 0)
(-0.00162531 -0.0462635 0)
(-0.00554539 -0.0436642 0)
(-0.000243193 -0.0427282 0)
(-0.00295348 -0.0252866 0)
(-0.00233139 -0.011796 0)
(-0.0112455 -0.023638 0)
(-0.00195754 -0.0516777 0)
(-0.00053984 -0.0464663 0)
(0.00766086 -0.0430966 0)
(0.00195346 -0.0482178 0)
(0.00562845 -0.0326476 0)
(0.00241526 -0.0317585 0)
(-0.00612235 -0.044835 0)
(-0.0125716 -0.0485189 0)
(-0.0133617 -0.0467873 0)
(-0.0097725 -0.054473 0)
(-0.00524274 -0.0504785 0)
(0.00265146 -0.0479641 0)
(0.00554561 -0.0616811 0)
(0.00241905 -0.0637634 0)
(0.0043073 -0.0554023 0)
(-0.000356521 -0.0602546 0)
(-0.00850124 -0.0630737 0)
(-0.00432648 -0.081686 0)
(-0.00492067 -0.0652442 0)
(0.000896226 -0.0700405 0)
(5.57813e-05 -0.0834799 0)
(0.00217655 -0.0829226 0)
(-0.000695265 -0.0948361 0)
(-0.00431793 -0.0934995 0)
(-0.00348951 -0.0854127 0)
(-0.00254634 -0.100066 0)
(-0.00029814 -0.0790054 0)
(-0.000902742 -0.108827 0)
(-0.00111266 -0.0900666 0)
(-0.00145195 -0.105696 0)
(-0.00183873 -0.0992522 0)
(0.000823077 -0.102946 0)
(0.00105567 -0.1123 0)
(0.000387981 -0.114543 0)
(0.000733902 -0.116096 0)
(-0.000298174 -0.117523 0)
(0.000244111 -0.116121 0)
(3.15989e-05 -0.117727 0)
(0.000114658 -0.116804 0)
(0.000368494 -0.117827 0)
(0.000103799 -0.117579 0)
(0.000218468 -0.116047 0)
(-0.000690219 -0.116188 0)
(-0.000449329 -0.106288 0)
(0.00256407 -0.106205 0)
(0.00250736 -0.11299 0)
(0.00162528 -0.1129 0)
(0.000961539 -0.108385 0)
(0.00360889 -0.110417 0)
(-0.000637663 -0.107427 0)
(-0.00299657 -0.100516 0)
(-0.000717982 -0.0818086 0)
(0.000978079 -0.0986472 0)
(-0.00317664 -0.0680475 0)
(0.00586328 -0.0861603 0)
(-0.00152241 -0.0682103 0)
(0.00246941 -0.065254 0)
(0.00631841 -0.0672204 0)
(0.00510638 -0.0791377 0)
(0.00931464 -0.0646865 0)
(0.00354648 -0.0601709 0)
(-0.00332758 -0.055863 0)
(-0.000762415 -0.0583647 0)
(-0.00517111 -0.0666734 0)
(-0.00405642 -0.0491396 0)
(0.00525808 -0.0496534 0)
(0.00992184 -0.055478 0)
(0.0145343 -0.0485874 0)
(0.0149079 -0.0519233 0)
(0.0121184 -0.0476327 0)
(0.00340526 -0.0326634 0)
(-0.000730372 -0.0291519 0)
(0.00079227 -0.0456707 0)
(-0.00598291 -0.0428849 0)
(-0.00115268 -0.0433524 0)
(0.00108553 -0.0501623 0)
(0.00857237 -0.0322686 0)
(0.00934332 -0.0179037 0)
(0.00364676 -0.0150206 0)
(0.00251204 -0.0336377 0)
(-0.00253049 -0.0432359 0)
(0.00224021 -0.0442489 0)
(-0.00185377 -0.0224977 0)
(0.00482049 -0.0412996 0)
(0.00892102 -0.0433768 0)
(0.00639415 -0.0185122 0)
(0.00636715 -0.0130124 0)
(-1.84289e-05 -0.0359105 0)
(-0.00948734 0.0287544 0)
(-0.00493314 0.0303733 0)
(0.00693325 0.0344346 0)
(0.00226915 0.0371418 0)
(-0.00509682 0.0106623 0)
(0.0077458 0.03256 0)
(0.00229532 0.0320998 0)
(0.0018974 -0.00602252 0)
(0.00570342 0.00957133 0)
(0.000381785 0.0354448 0)
(-0.00223855 0.0409695 0)
(-0.0072791 0.0363273 0)
(-0.00729207 0.0187555 0)
(-0.00231193 -0.00712041 0)
(0.00660536 0.000476224 0)
(0.00685959 0.0335778 0)
(0.00378801 0.0403632 0)
(0.0071045 0.0470445 0)
(0.00500481 0.0512534 0)
(-0.0171195 0.0517556 0)
(-0.0142493 0.0458441 0)
(-0.0111522 0.0336564 0)
(-0.00706338 0.0175333 0)
(0.00160568 0.0159308 0)
(0.00765408 0.0411184 0)
(0.00666327 0.0556846 0)
(0.00422713 0.055775 0)
(0.00438527 0.0608782 0)
(-0.00947895 0.0598839 0)
(-0.0125659 0.0686015 0)
(-0.00550702 0.0407609 0)
(0.00136964 0.0475299 0)
(0.00363268 0.0723539 0)
(0.00474655 0.0744068 0)
(0.00420339 0.0827356 0)
(-0.00671114 0.0819839 0)
(-0.00477329 0.0763076 0)
(-0.00493425 0.0843799 0)
(-0.00102022 0.0596383 0)
(0.00579859 0.0950785 0)
(-0.000550494 0.0793897 0)
(-0.00226949 0.0930496 0)
(-0.00204577 0.0834705 0)
(0.000497913 0.0874187 0)
(0.00101643 0.098981 0)
(0.000180503 0.101028 0)
(0.000321642 0.102438 0)
(-0.000228247 0.103748 0)
(0.000263923 0.102066 0)
(-3.86216e-05 0.103909 0)
(9.61246e-05 0.102741 0)
(0.000279638 0.103977 0)
(0.000315115 0.103771 0)
(0.000357666 0.102374 0)
(2.08509e-05 0.102554 0)
(0.000215404 0.0909489 0)
(0.00222367 0.0908873 0)
(0.00215118 0.0993055 0)
(-0.000186995 0.0993424 0)
(0.00134345 0.0958045 0)
(0.00243305 0.0968699 0)
(-0.00289524 0.093473 0)
(-0.00343467 0.08916 0)
(0.000820874 0.0724165 0)
(-0.00588743 0.0846337 0)
(-0.000669486 0.0453444 0)
(0.00772872 0.0750803 0)
(-0.00242286 0.0635635 0)
(0.000685171 0.0435083 0)
(0.00681471 0.0442573 0)
(0.0116869 0.0654506 0)
(0.0113429 0.0600828 0)
(-0.0018524 0.0600902 0)
(-0.00291561 0.0569926 0)
(9.28484e-05 0.0531913 0)
(-0.00993343 0.0495628 0)
(-0.00201588 0.0167829 0)
(0.00586339 0.01574 0)
(0.0111668 0.030506 0)
(0.0150834 0.0404102 0)
(0.0200161 0.0505612 0)
(0.000149849 0.0511822 0)
(-0.00431322 0.0475217 0)
(0.00219201 0.041084 0)
(-0.00243269 0.0403094 0)
(-0.0061587 0.0124921 0)
(0.000575852 -0.00194572 0)
(0.00558144 0.0137806 0)
(0.00815103 0.0276234 0)
(0.00842982 0.0397566 0)
(0.00513065 0.0387592 0)
(0.000695966 0.0247644 0)
(-0.00251781 -0.00464903 0)
(0.00190257 0.00919607 0)
(0.000494914 0.0219679 0)
(0.00755553 -0.00124237 0)
(0.0097724 0.0288624 0)
(0.00557907 0.0355221 0)
(0.0102533 0.0383649 0)
(0.0111016 0.0431843 0)
(0.00310897 -0.0168563 0)
(0.00806254 -0.0198351 0)
(0.00626845 -0.00351547 0)
(0.00879103 -0.0129632 0)
(0.00765203 -0.0257759 0)
(0.00870493 -0.0060909 0)
(0.00843154 -0.027947 0)
(0.00466935 -0.0332184 0)
(-0.000361725 -0.0287109 0)
(-0.0033797 -0.00182066 0)
(-0.00184589 0.00754439 0)
(-0.00446298 -0.00305675 0)
(-0.00122523 -0.0389443 0)
(-0.000686285 -0.041747 0)
(0.000646701 -0.035014 0)
(-0.00227883 -0.0298265 0)
(-0.00517959 -0.015029 0)
(-0.00967757 -0.0138379 0)
(-0.00387677 -0.0111172 0)
(-0.00984823 -0.017641 0)
(-0.00701693 -0.0286766 0)
(-0.00834719 -0.037302 0)
(-0.00377582 -0.0381308 0)
(-0.00177479 -0.0361033 0)
(-0.0043083 -0.0449403 0)
(-0.00665042 -0.0400251 0)
(-0.00410356 -0.0327507 0)
(-0.00389662 -0.0317691 0)
(-0.00659121 -0.0328012 0)
(0.00118295 -0.0596093 0)
(-0.00489492 -0.048179 0)
(-0.00273193 -0.0507088 0)
(-0.00433239 -0.0600299 0)
(-0.00269719 -0.0576186 0)
(-0.00281905 -0.0650948 0)
(-0.00280107 -0.0639871 0)
(-0.00195702 -0.0602635 0)
(-0.00208832 -0.0749733 0)
(-0.00118053 -0.0578107 0)
(-0.00434084 -0.0834627 0)
(-0.00189284 -0.0616479 0)
(-0.00211466 -0.0785944 0)
(-0.00131283 -0.0733326 0)
(-0.000397266 -0.0769464 0)
(-0.000330474 -0.0856121 0)
(-0.000266049 -0.087536 0)
(0.000406467 -0.089204 0)
(-0.000383058 -0.0907486 0)
(0.000136263 -0.0893229 0)
(-9.54126e-05 -0.0910605 0)
(0.000142024 -0.0899913 0)
(0.000359221 -0.0911178 0)
(0.000321864 -0.0908015 0)
(0.00044395 -0.0890907 0)
(-9.338e-06 -0.0893776 0)
(5.45658e-05 -0.0796005 0)
(0.00189373 -0.0794267 0)
(0.00209961 -0.0854857 0)
(0.00267422 -0.0855928 0)
(0.00116164 -0.083071 0)
(0.00232649 -0.0822638 0)
(0.00268036 -0.0796693 0)
(0.00124931 -0.0755562 0)
(0.00248071 -0.0556943 0)
(0.00504203 -0.0740806 0)
(0.000575141 -0.0493395 0)
(0.00413703 -0.0599174 0)
(0.00308233 -0.0423714 0)
(0.00434759 -0.0456493 0)
(0.0056224 -0.0493577 0)
(0.000408044 -0.0569269 0)
(0.00755068 -0.0357437 0)
(0.00443302 -0.0308291 0)
(0.00652309 -0.0343375 0)
(0.00604744 -0.0323981 0)
(0.00714817 -0.046819 0)
(0.00275978 -0.0369241 0)
(0.00365129 -0.0378258 0)
(0.00879667 -0.039961 0)
(0.0085751 -0.0322151 0)
(0.0113407 -0.0232508 0)
(0.00708277 -0.0132905 0)
(0.0120179 -0.0144303 0)
(0.00861991 -0.0128816 0)
(0.00540436 -0.0226817 0)
(0.00317926 -0.0299878 0)
(0.000940203 -0.036264 0)
(0.00268116 -0.0399178 0)
(0.00526467 -0.0168408 0)
(0.00958538 0.000260868 0)
(0.0087099 0.00624825 0)
(0.00890215 -0.0127399 0)
(0.00126713 -0.0311768 0)
(0.00190715 -0.0330869 0)
(0.000607471 -0.0119581 0)
(0.00275247 -0.0350163 0)
(5.36805e-06 -0.023919 0)
(0.00275449 -0.00226876 0)
(-0.00287795 -0.00117105 0)
(0.00163417 0.0055558 0)
(0.00785672 0.00499584 0)
(0.00824795 0.0169312 0)
(0.00814333 0.0222871 0)
(0.00957288 0.022552 0)
(0.00675221 -0.000741649 0)
(0.00993616 0.0214466 0)
(0.00391893 0.0238146 0)
(0.00378765 -0.00957631 0)
(0.00155626 0.00487732 0)
(-0.0023316 0.0248882 0)
(-0.000131682 0.030381 0)
(-0.000332195 0.0246633 0)
(-0.000564766 0.00416812 0)
(-0.00123304 -0.0178658 0)
(0.000930018 -0.0100976 0)
(-0.00161045 0.0237099 0)
(-0.00431064 0.0311708 0)
(-0.00564052 0.033154 0)
(-0.00453896 0.0334788 0)
(-0.00440528 0.0353865 0)
(-0.00758992 0.0294046 0)
(-0.0102171 0.0165605 0)
(-0.00514852 0.00139498 0)
(-0.00180288 0.00177977 0)
(0.00199694 0.0279817 0)
(-0.00609545 0.036461 0)
(-0.000532955 0.0384234 0)
(-0.00197261 0.0411712 0)
(-0.00388223 0.0383613 0)
(-0.0023648 0.0479982 0)
(-0.00429921 0.0243862 0)
(-0.00027533 0.0285037 0)
(0.000680127 0.0514599 0)
(0.00180849 0.0523117 0)
(-0.0015429 0.0581697 0)
(-0.0059904 0.057515 0)
(-0.00142559 0.0542205 0)
(-0.00304619 0.0609117 0)
(-0.00127205 0.039659 0)
(0.00212646 0.0716156 0)
(-0.00209395 0.055367 0)
(-0.000205992 0.0686125 0)
(-0.0011506 0.0593819 0)
(0.000455957 0.0630622 0)
(0.000833958 0.074371 0)
(0.000183596 0.0759984 0)
(0.000306918 0.0774418 0)
(-0.000214551 0.0786904 0)
(2.09522e-05 0.0768578 0)
(-3.01784e-05 0.0788979 0)
(0.000260691 0.0775046 0)
(0.000308884 0.0788799 0)
(0.000278748 0.078667 0)
(0.000367152 0.0773139 0)
(-0.000176706 0.0775866 0)
(0.000181753 0.0658043 0)
(0.00185805 0.0655691 0)
(0.00203634 0.0740624 0)
(2.91278e-05 0.074185 0)
(0.00027223 0.0723451 0)
(0.00411764 0.0715006 0)
(-0.00116761 0.0684329 0)
(-0.00726304 0.066418 0)
(0.00282671 0.0500729 0)
(-0.00091191 0.062925 0)
(0.000875424 0.0269338 0)
(0.00497133 0.0520754 0)
(0.00150415 0.0434641 0)
(0.0029527 0.024212 0)
(0.00591765 0.0277836 0)
(0.00273282 0.0444803 0)
(0.00416908 0.0389356 0)
(0.00472259 0.0397155 0)
(0.0020496 0.0394022 0)
(0.00767487 0.0340945 0)
(-0.000839616 0.0347378 0)
(0.00218348 0.00341475 0)
(0.0047218 -7.35805e-05 0)
(0.0101912 0.0133303 0)
(0.00913574 0.0237942 0)
(0.00616269 0.033815 0)
(0.00643846 0.0324746 0)
(0.00636044 0.0329089 0)
(0.00591561 0.0319447 0)
(0.00503492 0.0288834 0)
(0.00236348 0.00309197 0)
(0.00185027 -0.012459 0)
(0.002594 -0.000351731 0)
(0.00183874 0.0114525 0)
(0.00558823 0.0257757 0)
(0.00806623 0.0289505 0)
(0.00738585 0.0190102 0)
(0.00242257 -0.00901439 0)
(0.00354092 -0.00141655 0)
(0.000888858 0.0116997 0)
(0.00336352 -0.0126928 0)
(0.000760937 0.0181596 0)
(-0.00092933 0.0256244 0)
(-0.00392727 0.0287957 0)
(-0.00300359 0.0267761 0)
(0.00565167 -0.0260327 0)
(0.00929793 -0.0115085 0)
(0.00962992 0.00237767 0)
(0.00881885 -0.00214117 0)
(0.0073994 -0.0189741 0)
(0.00692826 0.00403542 0)
(0.00358558 -0.0147042 0)
(0.00681905 -0.0249644 0)
(0.00145017 -0.0179611 0)
(-0.00253314 0.00703334 0)
(-0.00113722 0.0137618 0)
(-0.0011406 0.0050446 0)
(-0.00154759 -0.0293673 0)
(-1.60285e-05 -0.0366531 0)
(-0.00464841 -0.0267821 0)
(-0.0102259 -0.016346 0)
(-0.0105079 -0.00402739 0)
(-0.0100273 -0.00401377 0)
(-0.00659016 -0.00078663 0)
(-0.00639742 -0.00432444 0)
(-0.00565509 -0.0138409 0)
(-0.00488426 -0.0270067 0)
(-0.00414594 -0.0313222 0)
(-0.00433797 -0.0283529 0)
(-0.0091443 -0.0322835 0)
(-0.00933021 -0.0239107 0)
(-0.00926475 -0.0219922 0)
(-0.00587327 -0.0155749 0)
(-0.00428606 -0.0179379 0)
(-0.00219305 -0.0427679 0)
(-0.00318766 -0.0354267 0)
(-0.00398306 -0.036897 0)
(-0.00623764 -0.0433473 0)
(-0.00463129 -0.0396725 0)
(-0.00411351 -0.0429512 0)
(-0.00171041 -0.0442331 0)
(-0.00267431 -0.0429564 0)
(-0.00210207 -0.0550763 0)
(-0.00190331 -0.0422248 0)
(-0.00484035 -0.0627199 0)
(-0.00190446 -0.0421639 0)
(-0.00249093 -0.058063 0)
(-0.00116003 -0.0531688 0)
(-0.00116077 -0.056639 0)
(-0.00117352 -0.06422 0)
(-0.000743375 -0.0658185 0)
(0.00010269 -0.0673284 0)
(-0.000453183 -0.0687489 0)
(9.02168e-05 -0.0673227 0)
(-0.000166023 -0.0691741 0)
(0.000126887 -0.067975 0)
(0.000335162 -0.069141 0)
(0.000534001 -0.0688717 0)
(0.000618831 -0.0670938 0)
(0.000661983 -0.0674992 0)
(0.000468146 -0.058396 0)
(0.00148567 -0.0581188 0)
(0.00164157 -0.0634241 0)
(0.00312605 -0.0633169 0)
(0.00173126 -0.0633809 0)
(0.00149842 -0.0605433 0)
(0.00247205 -0.0553497 0)
(0.00610828 -0.0573169 0)
(0.00300177 -0.0397763 0)
(0.00608998 -0.0547507 0)
(0.00257808 -0.0360103 0)
(0.00290265 -0.0417856 0)
(0.00578008 -0.0263777 0)
(0.00470937 -0.0320904 0)
(0.00351799 -0.0358155 0)
(0.00412294 -0.0395462 0)
(0.00504402 -0.0214642 0)
(0.00643643 -0.0151541 0)
(0.00960796 -0.0223487 0)
(0.00931124 -0.0174556 0)
(0.0120074 -0.0321506 0)
(0.00635324 -0.0286872 0)
(0.00407848 -0.0310166 0)
(0.00535003 -0.0308536 0)
(0.00560155 -0.0185604 0)
(0.00753502 -0.00934101 0)
(0.00748311 -0.00202678 0)
(0.0103448 -0.00396779 0)
(0.0121715 -0.00372891 0)
(0.0113623 -0.00990134 0)
(0.00926603 -0.019731 0)
(0.00279006 -0.0292728 0)
(0.00431048 -0.0318964 0)
(0.00175144 -0.010627 0)
(0.00649278 0.00363261 0)
(0.00932406 0.0116471 0)
(0.0093337 -0.00146954 0)
(0.0040633 -0.0222472 0)
(0.00277087 -0.0251828 0)
(0.00278338 -0.00465066 0)
(0.0006906 -0.0287207 0)
(-0.000680867 -0.0109612 0)
(-0.00244642 0.00896532 0)
(-0.00395472 0.00898104 0)
(2.18342e-05 0.00630702 0)
(0.00319869 -0.0168349 0)
(0.00288144 0.0068764 0)
(0.00468413 0.0170904 0)
(0.00366313 0.0184888 0)
(0.00392526 -0.0051399 0)
(0.00601478 0.020031 0)
(0.00175163 0.0167708 0)
(0.00427343 -0.0128149 0)
(0.000252655 0.00647432 0)
(-0.00305602 0.0216645 0)
(-0.00105245 0.0243945 0)
(0.0027555 0.0199541 0)
(0.000329043 -0.00331632 0)
(-0.000919749 -0.0211302 0)
(-0.00266496 -0.0107322 0)
(-0.00560265 0.0186718 0)
(-0.0114011 0.0244272 0)
(-0.0112314 0.0243002 0)
(-0.0047322 0.0245307 0)
(-0.0019072 0.0265079 0)
(-0.00450167 0.0194576 0)
(-0.00572664 0.00738856 0)
(-0.00415701 -0.00671987 0)
(-0.00380864 -0.00503334 0)
(-0.0024952 0.020852 0)
(-0.00842993 0.0243798 0)
(-0.00562767 0.0279578 0)
(-0.00569626 0.0281844 0)
(-0.000521293 0.0264896 0)
(-0.000384023 0.0336594 0)
(-0.00349261 0.0142968 0)
(-0.00123906 0.0168723 0)
(-0.00117433 0.037277 0)
(-0.00249045 0.0374871 0)
(-0.00265793 0.0409888 0)
(-0.00253831 0.0412412 0)
(-0.000528368 0.0395145 0)
(-0.0030292 0.0438063 0)
(-0.00164368 0.0265008 0)
(-0.000448428 0.0536574 0)
(-0.0021942 0.0395328 0)
(0.000350898 0.0509581 0)
(-0.0010177 0.042051 0)
(0.000369295 0.0454701 0)
(0.000638497 0.0557829 0)
(8.52487e-05 0.0569525 0)
(0.00023426 0.0583415 0)
(-0.000257139 0.059449 0)
(-1.2564e-05 0.0575254 0)
(-4.70136e-05 0.0597129 0)
(0.000253166 0.0580575 0)
(0.000347823 0.0594771 0)
(0.000347739 0.0592899 0)
(0.000385245 0.0581427 0)
(-0.000179378 0.0584652 0)
(0.000194824 0.0472425 0)
(0.00159927 0.0468742 0)
(0.00188807 0.0551012 0)
(0.00171252 0.0552325 0)
(0.000308168 0.0549668 0)
(0.00186711 0.053212 0)
(0.000881547 0.0487318 0)
(-0.00573244 0.0500254 0)
(0.00103798 0.0362204 0)
(0.000723649 0.0468889 0)
(0.00173835 0.0159099 0)
(0.00289939 0.0362991 0)
(0.00359106 0.0308931 0)
(0.00401736 0.01301 0)
(0.00532891 0.0170964 0)
(0.00252089 0.0300283 0)
(0.000172621 0.0272002 0)
(0.00651994 0.0272905 0)
(0.00663666 0.0283916 0)
(0.00970836 0.0230639 0)
(0.00477208 0.0253388 0)
(0.00472555 -0.00164191 0)
(0.00466141 -0.00768992 0)
(0.00628498 0.00453328 0)
(0.00516246 0.0137593 0)
(0.00249431 0.02383 0)
(0.00478514 0.0236583 0)
(0.0107647 0.0233356 0)
(0.0125378 0.0250809 0)
(0.00817985 0.0222064 0)
(0.0066412 0.00139816 0)
(0.00384712 -0.0151528 0)
(0.00269233 -0.00611604 0)
(-0.000711995 0.0046833 0)
(0.0041746 0.0151165 0)
(0.00751116 0.0229592 0)
(0.0061514 0.0179802 0)
(0.00420038 -0.00799859 0)
(0.00279585 -0.00616858 0)
(0.00221079 0.0091183 0)
(0.00112233 -0.0148637 0)
(-0.000566249 0.0154074 0)
(-0.00504522 0.0237806 0)
(-0.0042975 0.0217009 0)
(-0.00219359 0.0174276 0)
(0.00145486 -0.0278688 0)
(-0.00023269 -0.00760624 0)
(0.0018281 0.0055342 0)
(-0.000241832 0.00358583 0)
(0.00287266 -0.0175896 0)
(0.00120766 0.0102501 0)
(-0.000349161 -0.00850716 0)
(0.00516008 -0.0198407 0)
(-0.000293521 -0.00931094 0)
(-0.00284366 0.0126976 0)
(-0.0029086 0.0128532 0)
(0.000344136 0.00790291 0)
(-0.000781447 -0.021971 0)
(-0.000232431 -0.0313053 0)
(-0.00672805 -0.0198488 0)
(-0.0105594 -0.0050294 0)
(-0.0115996 0.00422199 0)
(-0.00976189 -0.00151473 0)
(-0.0070734 2.5352e-05 0)
(-0.00347485 0.00179719 0)
(-0.00206435 -0.00513918 0)
(-0.00388729 -0.0206093 0)
(-0.00418314 -0.0258807 0)
(-0.00597104 -0.0222855 0)
(-0.00933248 -0.0233094 0)
(-0.00868453 -0.0133772 0)
(-0.0100625 -0.0146596 0)
(-0.007447 -0.00830121 0)
(-0.00375433 -0.0111975 0)
(-0.00364706 -0.0299755 0)
(-0.00177879 -0.0267577 0)
(-0.00464416 -0.0274324 0)
(-0.0070918 -0.0308823 0)
(-0.00519647 -0.027523 0)
(-0.00438294 -0.0294998 0)
(-0.00164748 -0.0315103 0)
(-0.00334846 -0.0303016 0)
(-0.00176816 -0.0401908 0)
(-0.00244505 -0.0311964 0)
(-0.0044709 -0.0467057 0)
(-0.00163162 -0.029372 0)
(-0.00295645 -0.0430747 0)
(-0.000814327 -0.0385399 0)
(-0.00189259 -0.0416061 0)
(-0.00162376 -0.0479787 0)
(-0.000866306 -0.0491814 0)
(-0.000208863 -0.0505214 0)
(-0.000531334 -0.0516789 0)
(7.27531e-05 -0.0502588 0)
(-0.000137057 -0.0521866 0)
(0.000127587 -0.0508422 0)
(0.000160491 -0.0519859 0)
(0.00075421 -0.0517428 0)
(0.000800846 -0.0501731 0)
(0.000775472 -0.0506018 0)
(0.000920477 -0.0426452 0)
(0.00145995 -0.0422148 0)
(0.00133067 -0.0472334 0)
(0.002777 -0.0465026 0)
(0.00225349 -0.0477816 0)
(0.00195054 -0.0450071 0)
(0.00267694 -0.0381214 0)
(0.00726735 -0.0431635 0)
(0.0030578 -0.0295337 0)
(0.0061723 -0.0408143 0)
(0.00365413 -0.0270037 0)
(0.00261648 -0.0298211 0)
(0.00719492 -0.0168152 0)
(0.00479472 -0.023156 0)
(0.0020351 -0.0267042 0)
(0.00475226 -0.0264031 0)
(0.0043713 -0.0140125 0)
(0.0064474 -0.00879293 0)
(0.0101603 -0.0149256 0)
(0.00989121 -0.00916124 0)
(0.0119999 -0.0216313 0)
(0.00789798 -0.0227928 0)
(0.00460495 -0.0253957 0)
(0.00456165 -0.0248212 0)
(0.00378898 -0.0100952 0)
(0.00397991 -0.00253543 0)
(0.00686236 -0.000745375 0)
(0.0088082 -0.00201959 0)
(0.0121086 0.00295692 0)
(0.0123878 -1.22538e-05 0)
(0.0110918 -0.0127814 0)
(0.00373923 -0.0229836 0)
(0.00402738 -0.0246183 0)
(0.0010608 -0.00748481 0)
(0.00500128 0.00204727 0)
(0.0062082 0.0142438 0)
(0.00598092 0.0041616 0)
(0.00411679 -0.0167488 0)
(0.00218661 -0.0203154 0)
(0.00348671 0.000517325 0)
(-0.000831733 -0.0234824 0)
(-0.00169012 -0.000340681 0)
(-0.0033058 0.0159971 0)
(-0.00282561 0.00971506 0)
(-6.64867e-06 0.00281419 0)
(0.00116827 -0.0215672 0)
(-0.00120346 0.00360477 0)
(-0.00141502 0.0138776 0)
(-7.55579e-05 0.0147146 0)
(0.00134243 -0.0101191 0)
(-0.000611389 0.0206754 0)
(-0.000501996 0.00881281 0)
(0.00239216 -0.0154094 0)
(-0.00179246 0.0092084 0)
(-0.00379898 0.0208112 0)
(-0.00132025 0.0199315 0)
(0.00125934 0.0155073 0)
(-0.0022117 -0.00679145 0)
(-0.000745216 -0.020655 0)
(-0.00387512 -0.00851875 0)
(-0.00797288 0.0162423 0)
(-0.0107291 0.0202495 0)
(-0.00917238 0.0178655 0)
(-0.0051768 0.0181123 0)
(-0.00103235 0.0194141 0)
(-0.00176338 0.0147485 0)
(-0.00402234 0.0032318 0)
(-0.00391117 -0.0104343 0)
(-0.0043397 -0.00829023 0)
(-0.00286543 0.0157028 0)
(-0.00834722 0.0172553 0)
(-0.00817755 0.0215455 0)
(-0.00761128 0.019813 0)
(0.000670633 0.019128 0)
(-0.00125295 0.0232663 0)
(-0.00267477 0.00777299 0)
(-0.00192665 0.0100267 0)
(-0.00272806 0.0272004 0)
(-0.00404788 0.0273015 0)
(-0.00243501 0.0295834 0)
(-0.00136226 0.0301933 0)
(-0.00159232 0.0291215 0)
(-0.00303067 0.0312031 0)
(-0.00183424 0.0176114 0)
(-0.00183527 0.0398691 0)
(-0.00209167 0.0288404 0)
(-0.000121096 0.0380552 0)
(-0.00108572 0.029772 0)
(0.000329004 0.0327101 0)
(0.00033064 0.0417885 0)
(-0.00011834 0.0425155 0)
(0.000201701 0.0438708 0)
(-0.000371768 0.0447555 0)
(-4.55974e-05 0.0427598 0)
(1.14258e-05 0.0450172 0)
(0.000138342 0.0432234 0)
(0.00037111 0.0446044 0)
(0.000492306 0.0444084 0)
(0.000429586 0.0436301 0)
(-0.000106984 0.0439291 0)
(0.000217852 0.0336431 0)
(0.00137323 0.0331906 0)
(0.00224384 0.0411773 0)
(0.00218509 0.0410037 0)
(0.000539791 0.0414384 0)
(5.38458e-06 0.0399011 0)
(0.00192137 0.0348097 0)
(-0.00139058 0.0377581 0)
(0.0018853 0.0270386 0)
(0.000783458 0.0348282 0)
(0.00188209 0.00904939 0)
(0.00208906 0.0252232 0)
(0.0044632 0.0226914 0)
(0.00436466 0.00684498 0)
(0.00417638 0.0100138 0)
(0.00361795 0.0199685 0)
(0.000192619 0.0200434 0)
(0.00703055 0.0193187 0)
(0.00805808 0.0204424 0)
(0.00897557 0.0167263 0)
(0.00639848 0.0187848 0)
(0.00504845 -0.00361085 0)
(0.00457083 -0.0111011 0)
(0.004301 0.000159927 0)
(0.00382509 0.0094051 0)
(0.0021629 0.0176848 0)
(0.00456776 0.0177826 0)
(0.00853079 0.0169675 0)
(0.0109144 0.0192516 0)
(0.00969967 0.0179987 0)
(0.00768554 0.00283371 0)
(0.00387895 -0.0141401 0)
(0.00477316 -0.00788583 0)
(0.000332382 0.00106166 0)
(0.00106121 0.00915976 0)
(0.00625097 0.0202184 0)
(0.0050527 0.0165635 0)
(0.00385039 -0.0069224 0)
(0.00268052 -0.00867892 0)
(0.00286779 0.00961648 0)
(0.000976074 -0.0123672 0)
(-0.000248794 0.0142536 0)
(-0.00416871 0.0226552 0)
(-0.00275908 0.0156852 0)
(-0.00109067 0.0124542 0)
(0.00104608 -0.0259992 0)
(-0.00260811 -0.00181555 0)
(-0.0049757 0.00663747 0)
(-0.00100129 0.00343303 0)
(1.92146e-06 -0.0146065 0)
(-0.00577007 0.0146329 0)
(-0.000146407 -0.00805513 0)
(0.0017026 -0.0161839 0)
(-0.00188491 -0.0021832 0)
(-0.00312763 0.0149893 0)
(-0.00310341 0.0113723 0)
(-4.78433e-05 0.0116187 0)
(-0.00314192 -0.0180485 0)
(-0.00241961 -0.0282175 0)
(-0.00623145 -0.0128085 0)
(-0.00765432 0.00283502 0)
(-0.0103001 0.0080901 0)
(-0.00835949 -0.000723228 0)
(-0.00573956 -0.000746024 0)
(-0.00122403 0.0044093 0)
(-0.00169265 2.4172e-05 0)
(-0.0027335 -0.0156706 0)
(-0.00296094 -0.0226693 0)
(-0.00755337 -0.0189428 0)
(-0.0109181 -0.0163796 0)
(-0.0079412 -0.00571809 0)
(-0.0105283 -0.00954919 0)
(-0.00704398 -0.00600619 0)
(-0.00381473 -0.00778341 0)
(-0.00373594 -0.0205435 0)
(-0.00136081 -0.0207688 0)
(-0.0049493 -0.0204303 0)
(-0.00603967 -0.021378 0)
(-0.00581326 -0.0193658 0)
(-0.00474031 -0.0211367 0)
(-0.00146805 -0.0223302 0)
(-0.00337815 -0.020811 0)
(-0.00119626 -0.0292425 0)
(-0.00236274 -0.0233136 0)
(-0.00416868 -0.0343397 0)
(-0.00107933 -0.0207042 0)
(-0.00280956 -0.0319332 0)
(-0.000784559 -0.0280136 0)
(-0.00218144 -0.0305724 0)
(-0.00185028 -0.0355959 0)
(-0.00147099 -0.0365708 0)
(-0.000561577 -0.037662 0)
(-0.000485015 -0.0385163 0)
(-0.000189667 -0.0371584 0)
(0.000133548 -0.0389744 0)
(0.000210215 -0.0376738 0)
(0.000266174 -0.0387166 0)
(0.000597918 -0.0385081 0)
(0.000878665 -0.03715 0)
(0.00183675 -0.0376591 0)
(0.00141496 -0.0309885 0)
(0.00108814 -0.0306304 0)
(8.35201e-05 -0.035214 0)
(0.00186993 -0.0338465 0)
(0.00283289 -0.0350129 0)
(0.00294919 -0.033737 0)
(0.00265333 -0.0268886 0)
(0.00681392 -0.032308 0)
(0.00283884 -0.0216263 0)
(0.00527419 -0.0301789 0)
(0.00412616 -0.0205247 0)
(0.003355 -0.0217441 0)
(0.00665676 -0.0106702 0)
(0.00492578 -0.0168359 0)
(0.00214763 -0.0204257 0)
(0.00464267 -0.0173985 0)
(0.00442929 -0.00930497 0)
(0.00651791 -0.00600814 0)
(0.0105479 -0.00934215 0)
(0.00871991 -0.00390992 0)
(0.0107593 -0.013871 0)
(0.00838968 -0.0182338 0)
(0.00459431 -0.0219066 0)
(0.00515839 -0.0207978 0)
(0.00452543 -0.00566729 0)
(0.00255774 0.00104487 0)
(0.00408652 -0.000646177 0)
(0.00580779 -0.00193069 0)
(0.0110048 0.00562833 0)
(0.0101965 0.00546391 0)
(0.00887699 -0.00667819 0)
(0.00572929 -0.0188833 0)
(0.00558512 -0.0201789 0)
(0.00334883 -0.00234625 0)
(0.00416286 -0.000652509 0)
(0.00535187 0.0131792 0)
(0.00427196 0.00854057 0)
(0.0042765 -0.0130296 0)
(0.00243427 -0.0176221 0)
(0.00372257 0.00402569 0)
(-0.000419036 -0.0192758 0)
(0.000254153 0.00750412 0)
(-0.00306468 0.020212 0)
(-0.00507117 0.0088584 0)
(-0.00360266 0.000219996 0)
(4.63419e-05 -0.0217727 0)
(-0.000438036 0.00852373 0)
(-0.00226811 0.0110447 0)
(-0.00330645 0.00746592 0)
(-0.00271054 -0.00745824 0)
(-0.00478417 0.019889 0)
(-0.00321013 -0.000969002 0)
(-0.00222048 -0.0147485 0)
(-0.00304797 0.0101085 0)
(-0.00503553 0.0206552 0)
(-0.00475982 0.0161336 0)
(-0.000441449 0.0138797 0)
(-0.000142228 -0.00755786 0)
(-0.00140344 -0.0201217 0)
(-0.00401032 -0.00828477 0)
(-0.0062243 0.015331 0)
(-0.00883092 0.0183684 0)
(-0.00866092 0.0132088 0)
(-0.00504656 0.0124162 0)
(8.20507e-06 0.0147706 0)
(-0.000159326 0.0127156 0)
(-0.00346791 0.000532968 0)