/*--------------------------------*- C++ -*----------------------------------*\
| =========                 |                                                 |
| \\      /  F ield         | OpenFOAM: The Open Source CFD Toolbox           |
|  \\    /   O peration     | Version:  2312                                  |
|   \\  /    A nd           | Website:  www.openfoam.com                      |
|    \\/     M anipulation  |                                                 |
\*---------------------------------------------------------------------------*/
FoamFile
{
    version     2.0;
    format      ascii;
    arch        "LSB;label=32;scalar=64";
    class       volVectorField;
    location    "3";
    object      U.water;
}
// * * * * * * * * * * * * * * * * * * * * * * * * * * * * * * * * * * * * * //

dimensions      [0 1 -1 0 0 0 0];

internalField   nonuniform List<vector> 
50000
(
(0.000396431 -0.0390169 0)
(0.0218517 -0.0472473 0)
(0.016842 -0.0565861 0)
(0.0107823 -0.0676032 0)
(0.00257629 -0.057336 0)
(-0.0112844 -0.0661078 0)
(-0.00870482 -0.0566813 0)
(-0.00705418 -0.0695096 0)
(-0.0172227 -0.0753266 0)
(-0.0238682 -0.0583535 0)
(-0.042631 -0.0590501 0)
(-0.050098 -0.0564419 0)
(-0.0288464 -0.0380973 0)
(0.00726116 -0.0460194 0)
(0.0448226 -0.0425632 0)
(0.0434195 -0.0583483 0)
(0.0212391 -0.0539035 0)
(-0.00084262 -0.0608494 0)
(-0.00373324 -0.068842 0)
(-0.0239301 -0.0790807 0)
(-0.0268388 -0.0781244 0)
(-0.0196749 -0.0543947 0)
(0.0088629 -0.0579481 0)
(0.0129607 -0.0693641 0)
(0.0259167 -0.0688148 0)
(0.0275463 -0.0903012 0)
(0.00542652 -0.0725362 0)
(-0.0114438 -0.0697572 0)
(-0.0255604 -0.0868858 0)
(-0.0365354 -0.0860397 0)
(-0.0190645 -0.0534917 0)
(0.0206984 -0.054457 0)
(0.0378158 -0.0989566 0)
(0.0263383 -0.0925025 0)
(0.00639822 -0.0942133 0)
(-0.0023612 -0.0955006 0)
(-0.0228387 -0.0941946 0)
(-0.0304312 -0.0832842 0)
(0.0102554 -0.0619939 0)
(0.0293895 -0.139047 0)
(0.00632389 -0.101694 0)
(-0.00713012 -0.123857 0)
(-0.0137205 -0.104764 0)
(0.0177102 -0.100361 0)
(0.0230258 -0.1607 0)
(0.00895496 -0.165484 0)
(0.009103 -0.174536 0)
(0.00201843 -0.179067 0)
(0.00208499 -0.179994 0)
(0.000736073 -0.184947 0)
(-0.000217001 -0.181277 0)
(0.00120732 -0.186407 0)
(-0.00425486 -0.183362 0)
(-0.00413547 -0.172351 0)
(-0.0136594 -0.173337 0)
(-0.0113545 -0.116995 0)
(0.0137175 -0.117355 0)
(0.0147603 -0.154295 0)
(0.0030321 -0.149477 0)
(-0.00209881 -0.150453 0)
(-0.0129625 -0.144862 0)
(-0.0160362 -0.142571 0)
(-0.0232533 -0.1212 0)
(-0.0315791 -0.109521 0)
(-0.0339954 -0.0907834 0)
(-0.00943431 -0.0580598 0)
(0.0259819 -0.122807 0)
(-0.0100037 -0.081066 0)
(-0.0172212 -0.0744639 0)
(0.0119532 -0.0578558 0)
(0.0342223 -0.0763196 0)
(0.0286301 -0.0872252 0)
(0.00922807 -0.0737004 0)
(0.00337851 -0.0725898 0)
(-0.0235662 -0.0779712 0)
(-0.0298103 -0.0789477 0)
(-0.0183879 -0.0674868 0)
(-0.0129184 -0.0642854 0)
(0.00147815 -0.0544987 0)
(0.0320774 -0.0524748 0)
(0.0376717 -0.0764557 0)
(0.0309983 -0.0754967 0)
(0.0114421 -0.0666089 0)
(0.00641329 -0.061935 0)
(-0.0102024 -0.0598156 0)
(-0.029587 -0.0682972 0)
(-0.0294707 -0.0498264 0)
(-0.00593294 -0.0499228 0)
(0.0253672 -0.0444654 0)
(0.0303242 -0.0632633 0)
(0.0149649 -0.0644542 0)
(0.00987275 -0.0613445 0)
(-0.00440392 -0.0642999 0)
(-0.00894868 -0.0515159 0)
(0.00193364 -0.0475624 0)
(0.00651019 -0.0487499 0)
(0.0176934 -0.0513245 0)
(0.0171863 -0.0661116 0)
(0.0097941 -0.062943 0)
(0.00235215 -0.0611025 0)
(0.00845146 -0.00153748 0)
(0.0264037 0.00913495 0)
(0.0345009 0.0469424 0)
(0.0104709 0.0563116 0)
(-0.0214312 0.0544904 0)
(-0.0260363 0.0538103 0)
(-0.00955255 0.03215 0)
(0.00399872 0.0541255 0)
(-0.00175882 0.0646447 0)
(-0.0332374 0.0518599 0)
(-0.0457016 0.0535834 0)
(-0.0483702 0.0294611 0)
(-0.0231831 -0.0128741 0)
(0.0111242 -0.0112446 0)
(0.0325074 0.0032439 0)
(0.0505336 0.0501616 0)
(0.038504 0.0522745 0)
(0.0124097 0.0497386 0)
(-0.0202333 0.0555629 0)
(-0.0387813 0.0662562 0)
(-0.0392711 0.0547911 0)
(-0.0209465 0.0212017 0)
(0.00180184 0.0259399 0)
(0.0128523 0.0429191 0)
(0.0233447 0.0430044 0)
(0.0394036 0.0749377 0)
(0.0237114 0.0606086 0)
(-0.0218606 0.0559248 0)
(-0.0393161 0.0713732 0)
(-0.045096 0.0625675 0)
(-0.0167447 0.0202158 0)
(0.0119274 0.0212589 0)
(0.0378814 0.0768606 0)
(0.0368103 0.0760341 0)
(0.0083846 0.0768237 0)
(-0.00625665 0.0778997 0)
(-0.0346265 0.0769299 0)
(-0.0296635 0.0565169 0)
(0.00341003 0.0313104 0)
(0.0349114 0.119518 0)
(0.0195019 0.0837892 0)
(-0.0256804 0.104234 0)
(-0.0146523 0.0800161 0)
(0.00593474 0.0742282 0)
(0.0130779 0.141218 0)
(0.00401825 0.14548 0)
(0.00378088 0.154189 0)
(7.06422e-05 0.158638 0)
(0.00108636 0.159445 0)
(-6.56386e-06 0.164521 0)
(-0.000466731 0.160524 0)
(0.00083583 0.166189 0)
(-0.000232654 0.163075 0)
(-0.00146639 0.152043 0)
(-0.00491214 0.153433 0)
(-0.00335674 0.0921448 0)
(0.0109631 0.0926682 0)
(0.0135131 0.134341 0)
(0.00953513 0.129538 0)
(0.00307643 0.131064 0)
(-0.00836847 0.124796 0)
(-0.00468477 0.12252 0)
(-0.00187706 0.101715 0)
(-0.0375746 0.0898554 0)
(-0.0244634 0.0660151 0)
(-0.00558711 0.0255876 0)
(0.0382168 0.10229 0)
(-0.00358307 0.0674483 0)
(-0.0157395 0.0486347 0)
(0.0135116 0.0255189 0)
(0.0359184 0.0507902 0)
(0.0394002 0.072055 0)
(0.0275402 0.0582231 0)
(-0.0148921 0.0594658 0)
(-0.0378051 0.0653446 0)
(-0.0289511 0.0564382 0)
(-0.0174523 0.0410437 0)
(-0.00831187 0.0363501 0)
(0.0083359 0.0181251 0)
(0.0292336 0.0183441 0)
(0.0495027 0.0558422 0)
(0.0458191 0.0642538 0)
(0.0288829 0.0549805 0)
(-3.98593e-05 0.0501155 0)
(-0.0281859 0.0545699 0)
(-0.0405327 0.0579441 0)
(-0.0254452 0.0153211 0)
(-0.00618398 0.000447757 0)
(0.0163529 0.00273379 0)
(0.0389944 0.0503139 0)
(0.0317582 0.0554331 0)
(0.000541186 0.0530906 0)
(-0.0210834 0.0552929 0)
(-0.0207901 0.0264785 0)
(-0.00112282 0.014303 0)
(0.00907368 0.0162251 0)
(0.0242339 0.0205729 0)
(0.0337632 0.0529226 0)
(0.0288473 0.0551218 0)
(0.00965284 0.0513286 0)
(0.00832639 -0.0443408 0)
(0.0101142 -0.0419867 0)
(0.0130273 -0.00783249 0)
(0.00562149 0.0145243 0)
(-0.00329237 0.00997864 0)
(0.000124672 -0.0435077 0)
(-0.0216254 -0.0464035 0)
(-0.0196479 -0.04006 0)
(-0.00126959 -0.0150427 0)
(-0.011207 0.00428101 0)
(-0.0149537 -0.0149914 0)
(-0.015401 -0.0393007 0)
(-0.0137571 -0.0454625 0)
(0.00982089 -0.0507225 0)
(0.0220066 -0.0337944 0)
(0.0189706 -0.0289471 0)
(0.0135721 -0.00301675 0)
(-0.00370242 0.0011907 0)
(-0.0217909 -0.00987993 0)
(-0.0288319 -0.033954 0)
(-0.0210277 -0.049051 0)
(-0.0157948 -0.037151 0)
(-0.00539373 -0.0379123 0)
(0.00711178 -0.0417903 0)
(0.018044 -0.0439704 0)
(0.00836845 -0.0548247 0)
(0.00965285 -0.0147595 0)
(-0.0184842 -0.0144248 0)
(-0.0294863 -0.0420839 0)
(-0.0175167 -0.0548019 0)
(-0.010193 -0.036644 0)
(0.00488859 -0.0360171 0)
(0.00238762 -0.070357 0)
(0.00794235 -0.0466839 0)
(-0.00629701 -0.0446068 0)
(-0.0036269 -0.0466975 0)
(-0.0185358 -0.0509005 0)
(-0.0138656 -0.0543942 0)
(0.00365109 -0.039565 0)
(-0.00164621 -0.108967 0)
(-0.000799863 -0.0506794 0)
(-0.0101178 -0.0778829 0)
(-0.00630528 -0.072354 0)
(0.00394514 -0.0679915 0)
(0.00856937 -0.126149 0)
(0.00262793 -0.126712 0)
(0.00538567 -0.138001 0)
(0.000560423 -0.142387 0)
(0.00140285 -0.14519 0)
(0.000214932 -0.149939 0)
(1.31212e-05 -0.146423 0)
(0.00108863 -0.151675 0)
(-0.0022113 -0.147772 0)
(-0.00164879 -0.134942 0)
(-0.00607226 -0.137911 0)
(-0.00415689 -0.0818303 0)
(0.0106089 -0.0824085 0)
(0.00986897 -0.116537 0)
(0.00790884 -0.108218 0)
(0.00241893 -0.109758 0)
(0.00759036 -0.10392 0)
(-0.00420338 -0.104302 0)
(-0.00317617 -0.0761633 0)
(-0.00996324 -0.0681994 0)
(-0.0042399 -0.0642205 0)
(-0.00518528 -0.0383556 0)
(0.0183682 -0.0868093 0)
(0.00126643 -0.0300546 0)
(0.00690555 -0.0450337 0)
(0.010187 -0.0388316 0)
(0.0183398 -0.0477144 0)
(0.0286834 -0.0477951 0)
(0.0214628 -0.0198701 0)
(-0.00546415 -0.0155832 0)
(-0.00761209 -0.0353558 0)
(-0.020752 -0.0528422 0)
(-0.01353 -0.0401012 0)
(0.00190525 -0.0396762 0)
(0.0147355 -0.0374873 0)
(0.0239767 -0.0363934 0)
(0.0292254 -0.0482402 0)
(0.0336357 -0.0294451 0)
(0.0259429 -0.00894921 0)
(0.00766029 0.00113861 0)
(-0.0113152 -0.00353294 0)
(-0.0161016 -0.035862 0)
(-0.0188049 -0.0354252 0)
(-0.00503308 -0.0438765 0)
(0.00680734 -0.0407966 0)
(0.013903 -0.0404657 0)
(0.0183599 -0.00413016 0)
(0.00310924 0.00906975 0)
(0.00322925 -0.0121098 0)
(-0.00697421 -0.0358812 0)
(-0.000523007 -0.0389376 0)
(0.0064129 -0.0383941 0)
(0.0177636 -0.0394095 0)
(0.0129132 -0.0374534 0)
(0.0144648 -0.00352366 0)
(0.00366143 0.0109462 0)
(0.0105173 -0.0349834 0)
(0.0175293 -0.0137369 0)
(0.0167749 0.0327241 0)
(0.0113961 0.0413875 0)
(0.0186454 0.0379436 0)
(0.0123451 0.0426697 0)
(-0.0224398 0.0289896 0)
(-0.0112199 0.0141584 0)
(-0.00816774 0.0352205 0)
(0.00511848 0.0366236 0)
(-0.0021292 0.0345556 0)
(-0.0183693 0.0133533 0)
(-0.00877289 -0.0419147 0)
(0.0102884 -0.0451841 0)
(0.019911 -0.0178325 0)
(0.0242399 0.0331764 0)
(0.00191611 0.039452 0)
(-0.00764176 0.0399679 0)
(-0.0192058 0.0401473 0)
(-0.0263974 0.0396105 0)
(-0.028901 0.0235945 0)
(-0.0178534 -0.00435991 0)
(-0.00545033 -0.00249467 0)
(0.00640792 0.0109639 0)
(0.0119268 0.0201661 0)
(0.0172751 0.0502764 0)
(0.000825548 0.038815 0)
(-0.0169227 0.0385152 0)
(-0.024971 0.0427538 0)
(-0.025513 0.0297497 0)
(-0.0122906 -0.00369765 0)
(0.00336647 -0.000930963 0)
(0.0152884 0.0524685 0)
(0.00769265 0.0464868 0)
(-0.0032266 0.0462072 0)
(-0.0133173 0.0474142 0)
(-0.0190938 0.0484571 0)
(-0.0182814 0.0274675 0)
(-5.72795e-05 0.00738954 0)
(0.0213295 0.0962557 0)
(-0.000682629 0.0507537 0)
(-0.00881001 0.0711157 0)
(-0.00909658 0.0500957 0)
(0.00190495 0.0445436 0)
(0.0094117 0.114319 0)
(0.00409508 0.114882 0)
(0.00448326 0.12457 0)
(0.000119206 0.128232 0)
(0.000567115 0.130334 0)
(-4.29896e-05 0.135708 0)
(-0.000140199 0.131029 0)
(0.000529949 0.137612 0)
(7.10235e-05 0.134177 0)
(-0.0009797 0.121688 0)
(-0.00387713 0.125092 0)
(-0.00164109 0.0597738 0)
(0.0103276 0.0607144 0)
(0.0119843 0.103548 0)
(-0.00337225 0.0964302 0)
(0.00345071 0.101137 0)
(0.0176371 0.0914744 0)
(-0.0211431 0.089331 0)
(-0.0183184 0.0719908 0)
(-0.00709689 0.0614623 0)
(-0.00948949 0.043022 0)
(0.00148222 0.00051725 0)
(0.025315 0.072477 0)
(0.0015561 0.040801 0)
(0.00263061 0.0229989 0)
(0.0112258 0.00317831 0)
(0.0223526 0.0209246 0)
(0.0271037 0.0443332 0)
(0.0199946 0.0388375 0)
(0.00559377 0.038734 0)
(-0.00446356 0.0408333 0)
(-0.0194878 0.0362486 0)
(-0.00720454 0.0100781 0)
(-0.000150697 0.003777 0)
(0.013955 -0.00824354 0)
(0.0256177 -0.00674012 0)
(0.038904 0.0273438 0)
(0.0327688 0.039269 0)
(0.0205874 0.0399008 0)
(0.00977469 0.0408639 0)
(-0.000123886 0.0406583 0)
(-0.0195652 0.038207 0)
(-0.0186955 -0.0114741 0)
(-0.00686332 -0.030943 0)
(0.00523481 -0.0265044 0)
(0.0188971 0.0234441 0)
(0.0139033 0.0385624 0)
(0.0110046 0.0383817 0)
(0.0109033 0.0357282 0)
(-0.00493971 0.0126895 0)
(0.00503015 -0.0165735 0)
(0.00894117 -0.0176444 0)
(0.0198226 -0.00548237 0)
(0.0147814 0.0335503 0)
(0.00281062 0.0385574 0)
(0.000203581 0.043848 0)
(0.00976092 -0.0611598 0)
(0.0133053 -0.0377164 0)
(0.0147443 0.0132826 0)
(0.015101 0.0256614 0)
(0.0198294 0.0231339 0)
(0.0121196 0.0131256 0)
(0.019282 -0.0130232 0)
(0.00325991 -0.0306837 0)
(-0.000609506 -0.0151464 0)
(0.0112879 0.0148955 0)
(0.00923532 0.0149779 0)
(0.00579266 -0.0219779 0)
(-0.000623745 -0.0543758 0)
(0.00925148 -0.0599759 0)
(0.00663185 -0.0328524 0)
(0.0020236 -0.00134223 0)
(-0.00554291 0.0278956 0)
(-0.0150581 0.0263696 0)
(-0.0240047 0.0175146 0)
(-0.0304223 -0.00895371 0)
(-0.0212738 -0.0316658 0)
(-0.0129618 -0.0317278 0)
(-0.00950123 -0.0322524 0)
(4.45537e-05 -0.0288362 0)
(-0.000591916 -0.031039 0)
(-0.0054017 -0.0265085 0)
(-0.00319868 0.0133194 0)
(-0.0201592 0.0133359 0)
(-0.0244949 -0.0170338 0)
(-0.0121237 -0.0349993 0)
(-0.00619137 -0.0298358 0)
(-0.00422549 -0.0283739 0)
(-0.00958123 -0.0506599 0)
(-0.0054223 -0.017731 0)
(-0.00615208 -0.013888 0)
(-0.0123932 -0.0172513 0)
(-0.0102418 -0.0249544 0)
(-0.0106687 -0.0367454 0)
(-0.00350395 -0.0293256 0)
(-0.0138388 -0.0865743 0)
(-0.00744656 -0.0189601 0)
(-0.00825208 -0.0482882 0)
(-0.00507858 -0.0494666 0)
(-0.000740156 -0.0461554 0)
(0.000622846 -0.100508 0)
(-0.000437128 -0.0967906 0)
(0.00202593 -0.108122 0)
(-0.00104602 -0.111991 0)
(0.00083224 -0.116411 0)
(-0.000230323 -0.12152 0)
(0.000108138 -0.117635 0)
(0.0015579 -0.12347 0)
(-8.76116e-05 -0.118464 0)
(-6.08629e-05 -0.104211 0)
(-0.000934366 -0.109628 0)
(-0.000629006 -0.0565628 0)
(0.0067789 -0.0570022 0)
(0.00694477 -0.0844521 0)
(0.0100513 -0.0749433 0)
(0.00336618 -0.0879649 0)
(0.00309368 -0.0672653 0)
(0.00725219 -0.0629973 0)
(0.00555342 -0.0544432 0)
(0.00714731 -0.045937 0)
(0.011058 -0.0473256 0)
(-8.65506e-05 -0.0300598 0)
(0.0139995 -0.059169 0)
(0.00973694 -0.00356953 0)
(0.0115883 -0.0275977 0)
(0.00970633 -0.0287437 0)
(0.0139034 -0.0315647 0)
(0.0250508 -0.0249569 0)
(0.0211681 0.00735613 0)
(0.011802 0.0138697 0)
(0.00537079 -0.00336926 0)
(0.00874917 -0.0339901 0)
(-0.000690738 -0.0286582 0)
(0.00570489 -0.0307039 0)
(0.0162196 -0.0343993 0)
(0.0202856 -0.032577 0)
(0.0266079 -0.0308834 0)
(0.0320203 -0.00111281 0)
(0.0234833 0.0186501 0)
(0.0154923 0.0264073 0)
(0.00354943 0.0253522 0)
(-0.000674591 -0.00508407 0)
(-0.00618425 -0.0300769 0)
(-0.00454327 -0.0472794 0)
(0.000371194 -0.0460549 0)
(0.00807043 -0.0283239 0)
(0.0158662 0.0167608 0)
(0.0134618 0.0250592 0)
(0.0132195 0.0176814 0)
(0.0130019 -0.0174113 0)
(0.00842173 -0.0366604 0)
(0.00985077 -0.0373043 0)
(0.00818296 -0.0313855 0)
(0.00854237 -0.000981378 0)
(0.00474454 0.0265156 0)
(0.000390044 0.0273219 0)
(0.00719119 -0.0657426 0)
(0.00465111 -0.0257661 0)
(0.00909434 0.0236611 0)
(0.0164821 0.0258424 0)
(0.0234548 0.0327954 0)
(0.021036 0.0278346 0)
(0.0219967 0.022296 0)
(0.00336259 0.0169581 0)
(-0.00391358 0.0203854 0)
(0.011047 0.0207998 0)
(0.0190322 0.0275571 0)
(0.00604367 0.0126881 0)
(0.00462959 -0.0512263 0)
(0.00750034 -0.0553981 0)
(0.00245131 -0.0199937 0)
(-0.0111305 0.0271072 0)
(-0.0154463 0.0386121 0)
(-0.0177875 0.0377975 0)
(-0.019026 0.0338036 0)
(-0.023389 0.0238983 0)
(-0.0261009 0.000193527 0)
(-0.0174647 -0.0199646 0)
(-0.00954448 -0.0185534 0)
(-0.00295489 -0.0070441 0)
(0.00154458 0.0098277 0)
(-0.0153345 0.031035 0)
(-0.0140378 0.0332996 0)
(-0.0172355 0.0302439 0)
(-0.0151346 0.024074 0)
(-0.0167889 0.0067059 0)
(-0.00828112 -0.0159639 0)
(-0.00345681 -0.0118022 0)
(0.00174561 0.0363606 0)
(-0.00974297 0.0271191 0)
(-0.00769949 0.0279391 0)
(-0.0123408 0.0284143 0)
(-0.00733643 0.0288885 0)
(-0.0130001 0.00977485 0)
(-0.00362771 -0.00583807 0)
(0.00838612 0.0759272 0)
(-0.0107438 0.0298353 0)
(-0.00194972 0.0480969 0)
(-0.00543398 0.0285213 0)
(0.0013259 0.0230014 0)
(0.0082761 0.0909221 0)
(0.00287158 0.0886293 0)
(0.0037046 0.0973112 0)
(-0.000216884 0.100027 0)
(-0.00011656 0.102111 0)
(0.000268113 0.10854 0)
(0.00115926 0.102789 0)
(0.00118565 0.110451 0)
(-7.09931e-05 0.107054 0)
(-0.000804984 0.0939909 0)
(-0.00509558 0.0990443 0)
(-0.00162478 0.035 0)
(0.00817644 0.0356401 0)
(0.00999078 0.0762625 0)
(0.00259553 0.0686327 0)
(-0.00250941 0.0798964 0)
(0.0136194 0.0627024 0)
(-0.00698232 0.0570033 0)
(-0.0202919 0.0534217 0)
(0.00833943 0.0416759 0)
(0.000801232 0.0300059 0)
(0.00536056 -0.0120345 0)
(0.0151207 0.0453009 0)
(0.00776574 0.0265075 0)
(0.0102445 0.00699054 0)
(0.0103975 -0.00908235 0)
(0.0178967 0.000951457 0)
(0.018244 0.0253506 0)
(0.0166711 0.0277982 0)
(0.0182948 0.0275487 0)
(0.0176679 0.025409 0)
(0.00511945 0.0234052 0)
(0.00265424 -0.0021406 0)
(0.00683201 -0.0150652 0)
(0.0160655 -0.0238415 0)
(0.0232277 -0.021467 0)
(0.0299787 0.00697171 0)
(0.0257991 0.0266771 0)
(0.0195396 0.0361142 0)
(0.0169173 0.0408558 0)
(0.0143762 0.0407168 0)
(0.0108714 0.0283392 0)
(-0.00519971 -0.0166573 0)
(-0.00174188 -0.0439645 0)
(0.00331629 -0.0418123 0)
(0.00480776 0.000418503 0)
(0.00904781 0.0263124 0)
(0.0137522 0.0301281 0)
(0.0165189 0.0274047 0)
(0.0144298 0.00702644 0)
(0.0112366 -0.0234516 0)
(0.0115968 -0.0272916 0)
(0.0114885 -0.0132537 0)
(0.00602611 0.0233828 0)
(0.00429835 0.0374468 0)
(0.00157291 0.0382959 0)
(0.00494076 -0.0700942 0)
(-0.0046005 -0.0348633 0)
(0.00463061 0.00841433 0)
(0.0160117 0.0154973 0)
(0.0210231 0.0252228 0)
(0.018938 0.0224051 0)
(0.0160618 0.00888762 0)
(0.0122404 -0.00301819 0)
(0.0104173 -0.0158673 0)
(0.0142251 0.00422079 0)
(0.0185516 0.023323 0)
(0.0127168 -0.00741021 0)
(0.00721159 -0.0516893 0)
(0.00528612 -0.0569033 0)
(-0.00892296 -0.0185076 0)
(-0.0185956 0.0173552 0)
(-0.0192973 0.035348 0)
(-0.0218461 0.0324337 0)
(-0.020185 0.0249936 0)
(-0.0255513 0.00426079 0)
(-0.0204861 -0.0239298 0)
(-0.0155213 -0.031853 0)
(-0.0127988 -0.031325 0)
(-0.00818078 -0.0227465 0)
(-0.0146818 -0.0199353 0)
(-0.0192388 -0.00537035 0)
(-0.0173968 0.0201896 0)
(-0.017922 0.0218328 0)
(-0.0150375 -0.00553865 0)
(-0.0122088 -0.0246345 0)
(-0.00522008 -0.0271083 0)
(-0.00996258 -0.0240611 0)
(-0.0157555 -0.0367822 0)
(-0.0121524 -0.00322915 0)
(-0.0110314 -9.22713e-05 0)
(-0.0110724 -0.00402975 0)
(-0.00634425 -0.0110942 0)
(-0.00887129 -0.0260218 0)
(-0.00834261 -0.0242435 0)
(-0.0158784 -0.066618 0)
(-0.00908656 -0.00390505 0)
(-0.00806263 -0.0322295 0)
(-0.0051635 -0.0339115 0)
(-0.00332769 -0.0321398 0)
(-0.00405721 -0.08048 0)
(-0.0023388 -0.0743484 0)
(-0.000271218 -0.0839591 0)
(-0.00267332 -0.0867157 0)
(0.000478505 -0.0911506 0)
(-0.00035083 -0.09762 0)
(-9.96677e-05 -0.0924548 0)
(0.0016684 -0.0990929 0)
(0.00198986 -0.0939892 0)
(0.00135977 -0.0793768 0)
(0.00336145 -0.0865113 0)
(0.00173292 -0.0392432 0)
(0.00499948 -0.0393788 0)
(0.00495583 -0.0616674 0)
(0.00991569 -0.0496927 0)
(0.00676955 -0.0704469 0)
(0.00393991 -0.0452299 0)
(0.00669292 -0.0320538 0)
(0.0175217 -0.0447508 0)
(0.0122062 -0.0359696 0)
(0.0151618 -0.0361532 0)
(0.0031485 -0.025818 0)
(0.0111516 -0.0387758 0)
(0.0159403 0.00675704 0)
(0.0141554 -0.0170595 0)
(0.0101493 -0.0236316 0)
(0.0138522 -0.0232632 0)
(0.0201829 -0.0120117 0)
(0.0180543 0.0162403 0)
(0.0207005 0.0212458 0)
(0.0180555 0.0113539 0)
(0.0237265 -0.0175622 0)
(0.0128172 -0.0211033 0)
(0.011535 -0.0283042 0)
(0.0175376 -0.0352566 0)
(0.0195597 -0.0326556 0)
(0.0257552 -0.0217964 0)
(0.0263193 0.0120908 0)
(0.0195628 0.0318221 0)
(0.0188391 0.032987 0)
(0.0179681 0.0329888 0)
(0.0176711 0.0163431 0)
(0.00949009 -0.0196151 0)
(0.00123665 -0.0482617 0)
(0.00147798 -0.0471066 0)
(0.00158585 -0.0226993 0)
(0.0103994 0.0154527 0)
(0.0149042 0.024135 0)
(0.0179962 0.0207006 0)
(0.0158134 -0.00603271 0)
(0.0140006 -0.030109 0)
(0.0123057 -0.0322129 0)
(0.0109991 -0.0218709 0)
(0.00561603 0.0148199 0)
(0.00293099 0.0345677 0)
(-0.00164018 0.0419716 0)
(0.00414406 -0.068807 0)
(-0.00485992 -0.0260753 0)
(-0.00383303 0.000566727 0)
(0.0153529 0.00789374 0)
(0.0198455 0.0265047 0)
(0.0162153 0.0284897 0)
(0.0158127 0.0228279 0)
(0.013385 0.0141364 0)
(0.0132326 0.014982 0)
(0.0100045 0.00953672 0)
(0.0126411 0.0259126 0)
(0.00612731 0.0164012 0)
(0.00309832 -0.0497793 0)
(0.00174655 -0.0495325 0)
(-0.00907467 -0.0092987 0)
(-0.022539 0.0274846 0)
(-0.0219529 0.0383001 0)
(-0.0217023 0.034753 0)
(-0.0177307 0.0323242 0)
(-0.0222473 0.0173857 0)
(-0.0181418 -0.0111352 0)
(-0.0161062 -0.0281941 0)
(-0.0122644 -0.0266604 0)
(-0.0113135 -0.0146054 0)
(-0.0102541 0.00858782 0)
(-0.0216683 0.0207665 0)
(-0.0256666 0.0264358 0)
(-0.01741 0.0236755 0)
(-0.010528 0.0147724 0)
(-0.0143512 -0.00489959 0)
(-0.00663577 -0.0209222 0)
(-0.00803656 -0.0144496 0)
(-0.00787773 0.0268177 0)
(-0.0174932 0.0177907 0)
(-0.0115438 0.018888 0)
(-0.00805651 0.0184742 0)
(-0.00474785 0.0185818 0)
(-0.0102612 0.00132619 0)
(-0.00550023 -0.0112154 0)
(-0.0036403 0.0591272 0)
(-0.0119048 0.0197654 0)
(-0.000185949 0.0351048 0)
(-0.0039551 0.0152456 0)
(0.000431695 0.0103571 0)
(0.0070836 0.0727905 0)
(0.00115394 0.0694146 0)
(0.00260191 0.0760372 0)
(-0.000998224 0.0781802 0)
(0.00015407 0.0787155 0)
(0.000216856 0.087065 0)
(0.00114305 0.0795801 0)
(0.00146704 0.0883575 0)
(0.00047807 0.0850719 0)
(0.000231204 0.0722642 0)
(-0.0046746 0.0781326 0)
(-0.00107443 0.0193315 0)
(0.00624609 0.0196831 0)
(0.00811055 0.0575573 0)
(0.0103073 0.0490136 0)
(-0.00278883 0.0629107 0)
(0.00108733 0.0457902 0)
(0.00366183 0.0352299 0)
(-0.0117781 0.0423365 0)
(0.00715805 0.030777 0)
(0.00326649 0.0228899 0)
(0.0068034 -0.0165465 0)
(0.0100132 0.0241469 0)
(0.0131145 0.0200346 0)
(0.0134151 -8.41163e-05 0)
(0.0104587 -0.0142223 0)
(0.0165733 -0.00921973 0)
(0.0135674 0.0148427 0)
(0.0141072 0.0224453 0)
(0.0221896 0.0243528 0)
(0.0260705 0.0184062 0)
(0.0229814 0.015289 0)
(0.0126659 -0.00312518 0)
(0.0138601 -0.0233798 0)
(0.0168966 -0.031581 0)
(0.0203008 -0.0297319 0)
(0.0187627 -0.00316994 0)
(0.0204867 0.0256838 0)
(0.018133 0.0330368 0)
(0.0209877 0.0379387 0)
(0.0217244 0.0366593 0)
(0.0195258 0.027575 0)
(0.0122445 -0.00979195 0)
(0.00493196 -0.0422624 0)
(0.00523161 -0.0449722 0)
(0.0026319 -0.0116082 0)
(0.00943178 0.0138229 0)
(0.0132106 0.0212368 0)
(0.0152664 0.0247857 0)
(0.0121808 0.00615046 0)
(0.0152804 -0.0244802 0)
(0.0123417 -0.0283741 0)
(0.0138286 -0.00944491 0)
(0.00384702 0.0276337 0)
(-0.00134274 0.0430332 0)
(-0.00192909 0.0353837 0)
(0.00219818 -0.0708006 0)
(-0.00390915 -0.0244282 0)
(-0.00119789 -0.00960775 0)
(0.00430019 -0.00533297 0)
(0.0073635 0.0281114 0)
(0.00569256 0.0267184 0)
(0.00630979 0.0149936 0)
(0.0107789 0.00328793 0)
(0.0166175 -0.0100843 0)
(0.0141648 0.00962938 0)
(0.00761609 0.0297834 0)
(0.00391232 0.00145044 0)
(0.00244234 -0.0475141 0)
(-0.00267215 -0.0487001 0)
(-0.017286 -0.00250347 0)
(-0.0242578 0.0270517 0)
(-0.0247763 0.0363375 0)
(-0.0207361 0.0351844 0)
(-0.0162446 0.029127 0)
(-0.0195894 0.0090212 0)
(-0.0171298 -0.0224769 0)
(-0.015397 -0.0302127 0)
(-0.0133213 -0.0292707 0)
(-0.0140144 -0.018071 0)
(-0.0230687 -0.0129724 0)
(-0.0218976 0.00719817 0)
(-0.0235634 0.0254752 0)
(-0.0180205 0.021357 0)
(-0.0124391 -0.00084476 0)
(-0.0130233 -0.02 0)
(-0.00587619 -0.0261379 0)
(-0.0130335 -0.0202601 0)
(-0.0184046 -0.0264567 0)
(-0.0157829 0.0030229 0)
(-0.0130556 0.00366834 0)
(-0.00792663 0.000586835 0)
(-0.00697945 -0.0034364 0)
(-0.00749676 -0.019799 0)
(-0.0102244 -0.0210617 0)
(-0.0142826 -0.0503988 0)
(-0.00753009 0.00144357 0)
(-0.00932237 -0.0242931 0)
(-0.00422032 -0.0242862 0)
(-0.00489188 -0.0238984 0)
(-0.00735722 -0.064738 0)
(-0.00341365 -0.057894 0)
(-0.00186605 -0.0651007 0)
(-0.00343305 -0.0674339 0)
(-3.5881e-05 -0.0701683 0)
(-0.000511396 -0.0782303 0)
(-0.000159007 -0.0719902 0)
(0.00133494 -0.079199 0)
(0.0036451 -0.0748415 0)
(0.00267063 -0.0606949 0)
(0.00557661 -0.06855 0)
(0.00391758 -0.0284924 0)
(0.0045425 -0.0279444 0)
(0.00342236 -0.0478778 0)
(0.00818517 -0.0325312 0)
(0.00823969 -0.0518776 0)
(0.00613672 -0.0335289 0)
(0.00959428 -0.0159169 0)
(0.0207447 -0.0372911 0)
(0.0124702 -0.0295306 0)
(0.0148834 -0.0289318 0)
(0.0053871 -0.0237503 0)
(0.0101265 -0.0254744 0)
(0.0189974 0.00992208 0)
(0.0151497 -0.0106116 0)
(0.0112094 -0.0213226 0)
(0.0143661 -0.0194339 0)
(0.0155763 -0.00417398 0)
(0.0139915 0.016462 0)
(0.0231555 0.0189891 0)
(0.0244936 0.014325 0)
(0.0273308 -0.0051207 0)
(0.0177205 -0.0146318 0)
(0.0156667 -0.0252443 0)
(0.0168246 -0.0342487 0)
(0.0189393 -0.0298871 0)
(0.017747 -0.0169563 0)
(0.0162614 0.0135853 0)
(0.0163942 0.0325713 0)
(0.0206405 0.0359554 0)
(0.0228142 0.039602 0)
(0.0235317 0.0252954 0)
(0.0194511 -0.00837462 0)
(0.00725285 -0.0436385 0)
(0.0056466 -0.0431158 0)
(0.00195648 -0.0229547 0)
(0.0089128 0.0111441 0)
(0.0104261 0.0228433 0)
(0.0118823 0.0232017 0)
(0.0128251 -0.00382154 0)
(0.0162538 -0.0290376 0)
(0.0140597 -0.0300749 0)
(0.00987823 -0.0132235 0)
(-0.00141103 0.02896 0)
(-0.00226806 0.0425627 0)
(0.000532367 0.0365081 0)
(0.000636176 -0.0680541 0)
(-0.00403806 -0.022091 0)
(-0.00583163 -0.00794564 0)
(-0.00140462 0.000328978 0)
(0.00643895 0.025087 0)
(0.00791033 0.0265559 0)
(0.0037206 0.0157303 0)
(0.014294 0.00260862 0)
(0.00690136 0.00909136 0)
(0.0084219 0.0115622 0)
(0.0076798 0.0335704 0)
(-0.00327653 0.0137647 0)
(-0.00135879 -0.0474052 0)
(-0.00494381 -0.0401131 0)
(-0.0174627 0.00156469 0)
(-0.0257875 0.0307544 0)
(-0.0255421 0.0357323 0)
(-0.019677 0.0277713 0)
(-0.012889 0.029779 0)
(-0.0141514 0.0143465 0)
(-0.0177422 -0.0152241 0)
(-0.0159952 -0.0323398 0)
(-0.0137131 -0.029526 0)
(-0.0136048 -0.0145466 0)
(-0.0166688 0.00847737 0)
(-0.0265318 0.0161663 0)
(-0.0268503 0.0228159 0)
(-0.0140092 0.0186396 0)
(-0.00425146 0.00969611 0)
(-0.0140742 -0.0106473 0)
(-0.00648444 -0.0228847 0)
(-0.0103498 -0.0141662 0)
(-0.0140609 0.0208098 0)
(-0.0201628 0.013076 0)
(-0.0111137 0.0135182 0)
(-0.00572128 0.0130847 0)
(-0.00591837 0.0133822 0)
(-0.00847775 -0.00273035 0)
(-0.00681062 -0.0131953 0)
(-0.00791232 0.0458442 0)
(-0.0101302 0.0148192 0)
(-0.00191574 0.0274525 0)
(-0.00356121 0.0068675 0)
(-0.000679491 0.00289148 0)
(0.00513223 0.0585268 0)
(-8.57751e-05 0.0550667 0)
(0.00141144 0.0595459 0)
(-0.00165896 0.0616573 0)
(0.000425662 0.0594504 0)
(0.000320315 0.0697096 0)
(0.000706343 0.0611594 0)
(0.00145776 0.070295 0)
(0.000919107 0.06746 0)
(0.000992887 0.0559031 0)
(-0.00366061 0.0616065 0)
(0.000202845 0.00983306 0)
(0.00545559 0.00959764 0)
(0.00695975 0.0453782 0)
(0.011404 0.0359197 0)
(0.000934688 0.0477107 0)
(-0.00648397 0.0358766 0)
(0.00930628 0.0231984 0)
(0.00246062 0.0347968 0)
(0.00639503 0.0242826 0)
(0.00308992 0.0180149 0)
(0.00736606 -0.0182253 0)
(0.00822169 0.00894566 0)
(0.0163909 0.0163972 0)
(0.0137659 -0.00235948 0)
(0.011454 -0.016368 0)
(0.015981 -0.0136492 0)
(0.0113988 0.00973049 0)
(0.013097 0.0186962 0)
(0.0223404 0.0184888 0)
(0.0252794 0.0170537 0)
(0.0253304 0.0118224 0)
(0.0138114 -0.00118576 0)
(0.0155353 -0.0262034 0)
(0.0157947 -0.0348425 0)
(0.0189196 -0.0326128 0)
(0.0217529 -0.00494071 0)
(0.00930673 0.023798 0)
(0.0112548 0.0327793 0)
(0.0176184 0.0329461 0)
(0.0241057 0.0330336 0)
(0.0279702 0.0272186 0)
(0.0188255 -0.000729279 0)
(0.00963871 -0.0355224 0)
(0.00795124 -0.042421 0)
(0.00266371 -0.0153082 0)
(0.00300044 0.00752462 0)
(0.0107052 0.0166177 0)
(0.0104464 0.023164 0)
(0.0127178 0.000687296 0)
(0.0155613 -0.0248898 0)
(0.0135119 -0.023515 0)
(0.00675053 0.00500795 0)
(-0.00491072 0.0390535 0)
(-0.00562767 0.0396557 0)
(-0.0025705 0.0367564 0)
(0.00159151 -0.0670251 0)
(-0.00389281 -0.0167543 0)
(-0.00481697 -0.0125128 0)
(-0.00188414 -0.0166042 0)
(0.00269119 0.018267 0)
(0.0029507 0.0314299 0)
(0.002475 0.0129439 0)
(0.0157666 0.00337788 0)
(0.00983115 -0.00314783 0)
(0.00779727 0.0103835 0)
(-0.000365624 0.0352704 0)
(-0.00480301 0.0121204 0)
(-0.000374752 -0.0461522 0)
(-0.00934846 -0.0397872 0)
(-0.0164598 0.0105663 0)
(-0.0245872 0.0325663 0)
(-0.0242268 0.0346943 0)
(-0.0180043 0.0274318 0)
(-0.0101699 0.02654 0)
(-0.00904447 0.0135657 0)
(-0.0128014 -0.0206802 0)
(-0.0142944 -0.0319154 0)
(-0.0158093 -0.0304017 0)
(-0.0190671 -0.014662 0)
(-0.0293398 -0.00584836 0)
(-0.0241959 0.0125845 0)
(-0.0259726 0.0215317 0)
(-0.0134477 0.0133531 0)
(-0.0103961 0.00199978 0)
(-0.013486 -0.0170256 0)
(-0.00683833 -0.0258321 0)
(-0.0143362 -0.0170708 0)
(-0.0170285 -0.0182133 0)
(-0.0157559 0.00465229 0)
(-0.0121848 0.00296819 0)
(-0.00716617 0.00227589 0)
(-0.00819483 0.00094294 0)
(-0.00683453 -0.0162836 0)
(-0.010638 -0.0188482 0)
(-0.0130353 -0.0385214 0)
(-0.00576205 0.00329749 0)
(-0.00982324 -0.0197726 0)
(-0.00379685 -0.0184696 0)
(-0.0062368 -0.0190215 0)
(-0.009027 -0.0523308 0)
(-0.00469822 -0.0462497 0)
(-0.00254791 -0.0509738 0)
(-0.00377999 -0.0527861 0)
(-0.000702105 -0.0535995 0)
(-0.000513234 -0.0624251 0)
(0.000466383 -0.0555257 0)
(0.0011632 -0.062874 0)
(0.00414396 -0.059435 0)
(0.00364243 -0.0461146 0)
(0.00769901 -0.0539964 0)
(0.00528312 -0.0218057 0)
(0.00387988 -0.0208619 0)
(0.00172415 -0.0392306 0)
(0.00629525 -0.0220212 0)
(0.00742011 -0.0347591 0)
(0.0101526 -0.0277178 0)
(0.0105369 -0.0110106 0)
(0.018284 -0.0304329 0)
(0.0123756 -0.0232354 0)
(0.0145779 -0.0237239 0)
(0.00738195 -0.0227901 0)
(0.00968697 -0.0184587 0)
(0.0200601 0.0107688 0)
(0.0150214 -0.00662648 0)
(0.0118158 -0.0204313 0)
(0.0147148 -0.017397 0)
(0.0095708 0.000613997 0)
(0.0134306 0.0142243 0)
(0.0248111 0.0177951 0)
(0.0246797 0.0138423 0)
(0.0239569 0.00322679 0)
(0.0204488 -0.00942559 0)
(0.0180872 -0.0258962 0)
(0.0158281 -0.0361699 0)
(0.0167887 -0.0322963 0)
(0.0138813 -0.0107653 0)
(0.00905418 0.0243759 0)
(0.00677385 0.0274468 0)
(0.0190379 0.0285209 0)
(0.0237541 0.0315093 0)
(0.0227093 0.0298337 0)
(0.0175001 0.00348417 0)
(0.0134925 -0.0375231 0)
(0.00900979 -0.0391495 0)
(0.00879801 -0.0189968 0)
(0.00942181 0.00375464 0)
(0.00956099 0.0174983 0)
(0.00312307 0.0218444 0)
(0.00697692 -0.00838169 0)
(0.0112798 -0.0276358 0)
(0.00791221 -0.0218026 0)
(0.00308295 0.00432197 0)
(-0.00487103 0.0434397 0)
(-0.005479 0.0397392 0)
(-0.00538396 0.0266929 0)
(0.00126349 -0.0660914 0)
(-0.00414673 -0.0159081 0)
(0.00279466 -0.00915043 0)
(-0.00603515 -0.00772802 0)
(-0.0120876 0.0210439 0)
(-0.0108738 0.026542 0)
(-0.0028201 0.00284891 0)
(0.0089493 -0.00350818 0)
(0.00822431 0.0120195 0)
(-0.00235292 0.0191386 0)
(-0.00615122 0.0430555 0)
(-0.00439238 0.010499 0)
(-0.00442944 -0.0456906 0)
(-0.010344 -0.0313747 0)
(-0.0161224 0.00979049 0)
(-0.0226458 0.03323 0)
(-0.022764 0.0321812 0)
(-0.0180369 0.0231642 0)
(-0.00530908 0.0255514 0)
(-0.00314962 0.0155816 0)
(-0.0122551 -0.0132559 0)
(-0.0144204 -0.0300412 0)
(-0.0146166 -0.0270358 0)
(-0.0133184 -0.0111264 0)
(-0.0190915 0.00801708 0)
(-0.0243428 0.0147076 0)
(-0.0241997 0.0192124 0)
(-0.0137833 0.0151772 0)
(-0.00825349 0.00792615 0)
(-0.0138822 -0.0134205 0)
(-0.00731129 -0.0237145 0)
(-0.0111619 -0.012211 0)
(-0.0154423 0.015932 0)
(-0.0194899 0.0105152 0)
(-0.0100587 0.0101137 0)
(-0.00594087 0.0102324 0)
(-0.00701953 0.0106855 0)
(-0.00733237 -0.00494551 0)
(-0.00730902 -0.0138666 0)
(-0.00850457 0.0355749 0)
(-0.00868604 0.0121698 0)
(-0.00310429 0.0226558 0)
(-0.00336844 0.00150479 0)
(-0.00168913 -0.00128674 0)
(0.00297472 0.0471167 0)
(-0.00145758 0.0443489 0)
(0.000949872 0.0469413 0)