/*--------------------------------*- C++ -*----------------------------------*\
| =========                 |                                                 |
| \\      /  F ield         | OpenFOAM: The Open Source CFD Toolbox           |
|  \\    /   O peration     | Version:  2312                                  |
|   \\  /    A nd           | Website:  www.openfoam.com                      |
|    \\/     M anipulation  |                                                 |
\*---------------------------------------------------------------------------*/
FoamFile
{
    version     2.0;
    format      ascii;
    arch        "LSB;label=32;scalar=64";
    class       volScalarField;
    location    "2";
    object      alpha.air;
}
// * * * * * * * * * * * * * * * * * * * * * * * * * * * * * * * * * * * * * //

dimensions      [0 0 0 0 0 0 0];

internalField   nonuniform List<scalar> 
50000
(
0.207058
0.191434
0.193101
0.201947
0.198616
0.194176
0.20545
0.206117
0.203325
0.195245
0.189925
0.194866
0.201225
0.204876
0.205252
0.20476
0.202141
0.195615
0.191909
0.192664
0.198546
0.202564
0.205001
0.204339
0.204119
0.204643
0.197723
0.193943
0.194601
0.203871
0.202013
0.203038
0.19956
0.200516
0.211501
0.210934
0.203213
0.217496
0.202484
0.218835
0.207174
0.219343
0.213196
0.218238
0.218957
0.220818
0.22121
0.221308
0.221115
0.221374
0.221029
0.2213
0.22121
0.221229
0.221015
0.21885
0.218662
0.220542
0.221015
0.21735
0.220561
0.215651
0.215175
0.196813
0.21439
0.201379
0.199319
0.197167
0.202944
0.20202
0.203771
0.194688
0.19448
0.196608
0.200638
0.204613
0.203271
0.204411
0.20318
0.201404
0.193558
0.190136
0.190963
0.199148
0.204927
0.203805
0.207077
0.202698
0.200501
0.19103
0.194256
0.204389
0.20309
0.200641
0.203031
0.200103
0.19651
0.193318
0.19518
0.19456
0.160721
0.160803
0.162102
0.164268
0.161234
0.163729
0.156836
0.159796
0.15719
0.162412
0.159027
0.161986
0.160501
0.155639
0.157105
0.159587
0.163894
0.161382
0.159934
0.161309
0.1632
0.161932
0.158008
0.158254
0.159686
0.164559
0.164711
0.164016
0.165061
0.166698
0.159994
0.16211
0.168193
0.171625
0.173261
0.175973
0.173408
0.177344
0.166872
0.177979
0.174579
0.179025
0.175242
0.178082
0.178949
0.17963
0.179835
0.179838
0.179751
0.17987
0.179735
0.179819
0.17984
0.179781
0.17969
0.178522
0.178411
0.179423
0.179665
0.178278
0.179571
0.175628
0.177558
0.170767
0.174011
0.161506
0.169247
0.165729
0.161521
0.16041
0.166302
0.165234
0.164111
0.163789
0.16451
0.161467
0.157904
0.158078
0.159818
0.163659
0.161836
0.159988
0.161295
0.163282
0.161482
0.159488
0.158038
0.157055
0.162159
0.159272
0.162626
0.159268
0.155044
0.160571
0.161481
0.162089
0.163272
0.162154
0.161509
0.163138
0.128452
0.130898
0.129711
0.135468
0.12773
0.140281
0.130925
0.127594
0.130787
0.134967
0.12983
0.131766
0.129611
0.128388
0.128934
0.130448
0.135614
0.131628
0.129533
0.13001
0.133038
0.129747
0.129118
0.129454
0.12933
0.133477
0.132591
0.131281
0.131946
0.133003
0.12805
0.128923
0.133429
0.134949
0.136043
0.137831
0.136354
0.137847
0.132287
0.137954
0.13764
0.138463
0.137077
0.137359
0.137799
0.138109
0.138503
0.138513
0.138525
0.138587
0.138627
0.13854
0.138611
0.138497
0.138544
0.138346
0.138516
0.138713
0.138395
0.138282
0.138861
0.137314
0.137286
0.135804
0.136542
0.129364
0.134227
0.132233
0.1285
0.128325
0.133062
0.132291
0.131332
0.131411
0.133701
0.130681
0.129012
0.129256
0.1291
0.133433
0.132456
0.128971
0.135078
0.134851
0.1316
0.128983
0.129195
0.128851
0.133093
0.127955
0.13219
0.130997
0.12712
0.127852
0.133656
0.131933
0.135538
0.131836
0.131169
0.13184
0.128382
0.13022
0.129751
0.135518
0.128056
0.136896
0.132005
0.126609
0.127594
0.128783
0.127616
0.131525
0.12982
0.128932
0.12711
0.128936
0.135669
0.131689
0.130005
0.129618
0.133057
0.130236
0.129453
0.127688
0.129375
0.13351
0.132761
0.130952
0.132562
0.133039
0.128155
0.129453
0.133484
0.134889
0.137575
0.13786
0.136325
0.137868
0.132426
0.137981
0.137247
0.138487
0.137327
0.137929
0.138398
0.13867
0.138682
0.138663
0.138617
0.138696
0.138596
0.138735
0.138655
0.138778
0.138618
0.138507
0.138223
0.138763
0.138673
0.138329
0.138882
0.137331
0.137336
0.135603
0.136579
0.129178
0.134248
0.132933
0.129012
0.128434
0.133089
0.132912
0.13104
0.131773
0.133711
0.13002
0.129255
0.12764
0.129191
0.133474
0.130775
0.129219
0.13185
0.134875
0.131265
0.129196
0.12732
0.129195
0.132893
0.127391
0.127739
0.130972
0.127814
0.126998
0.13369
0.1321
0.13555
0.131886
0.131725
0.129646
0.126597
0.128343
0.127614
0.131224
0.126617
0.13135
0.129096
0.127594
0.125992
0.129148
0.126242
0.129692
0.128932
0.125471
0.128932
0.128102
0.132438
0.130002
0.127656
0.129863
0.130186
0.129453
0.12693
0.129369
0.127848
0.130198
0.129176
0.127749
0.128176
0.129639
0.12681
0.128126
0.127994
0.12819
0.13225
0.131108
0.130966
0.132344
0.128253
0.132505
0.131686
0.132836
0.132447
0.131758
0.132558
0.131797
0.132596
0.131893
0.132676
0.131935
0.13273
0.132013
0.132797
0.132051
0.132775
0.132132
0.132703
0.132789
0.132661
0.132891
0.133118
0.130866
0.130382
0.130841
0.131636
0.127546
0.129414
0.128185
0.128434
0.12709
0.129685
0.128258
0.127803
0.128259
0.130358
0.129256
0.126593
0.12919
0.127821
0.129144
0.129156
0.1271
0.129217
0.131669
0.129195
0.127271
0.129194
0.126894
0.130241
0.126437
0.12733
0.127088
0.124107
0.127814
0.130506
0.129843
0.133559
0.131724
0.128566
0.131715
0.125879
0.128323
0.127908
0.131091
0.128056
0.131466
0.130575
0.12454
0.127593
0.129196
0.127615
0.129711
0.127859
0.128931
0.124886
0.128933
0.132391
0.129784
0.129855
0.127786
0.130438
0.128065
0.129368
0.126067
0.129284
0.130173
0.130096
0.128136
0.128548
0.129624
0.128121
0.126805
0.129503
0.130087
0.132238
0.131614
0.131115
0.132387
0.128563
0.132517
0.13242
0.13286
0.131496
0.132904
0.132363
0.133449
0.132618
0.133412
0.132555
0.133456
0.132606
0.133464
0.132663
0.133497
0.132663
0.133044
0.132442
0.133034
0.133165
0.132584
0.133156
0.132404
0.132341
0.130171
0.131654
0.128453
0.129518
0.129308
0.12672
0.128418
0.129745
0.128972
0.128256
0.129052
0.130436
0.127971
0.129255
0.126108
0.129191
0.130237
0.128851
0.129216
0.12838
0.13238
0.128957
0.129194
0.125215
0.129194
0.130187
0.12739
0.128316
0.128253
0.127814
0.124009
0.132056
0.130317
0.133525
0.130852
0.131617
0.129286
0.126427
0.126854
0.126878
0.129852
0.125386
0.13236
0.129811
0.127592
0.124187
0.127872
0.126528
0.129612
0.128931
0.124124
0.128931
0.127675
0.132553
0.129859
0.127254
0.129856
0.130284
0.129369
0.125973
0.129279
0.127017
0.129284
0.129575
0.127271
0.128136
0.128413
0.125868
0.128034
0.127656
0.128127
0.128569
0.128649
0.128364
0.12983
0.128213
0.130146
0.130033
0.130518
0.129515
0.130126
0.129593
0.130193
0.12963
0.130248
0.129709
0.130317
0.129745
0.130376
0.129812
0.130447
0.12988
0.130511
0.129944
0.130554
0.130317
0.130517
0.130644
0.129069
0.129416
0.129006
0.129617
0.126654
0.128439
0.128127
0.128418
0.126086
0.128418
0.128261
0.127325
0.128256
0.129424
0.129239
0.125482
0.129255
0.127117
0.13075
0.129338
0.127166
0.129338
0.132263
0.129196
0.126353
0.129193
0.125824
0.129905
0.126961
0.129538
0.127851
0.123311
0.127851
0.132277
0.129273
0.132381
0.131927
0.128375
0.131617
0.125813
0.128665
0.127148
0.129611
0.128055
0.132392
0.130393
0.124328
0.127592
0.128061
0.127614
0.129642
0.127467
0.12893
0.12459
0.128932
0.133009
0.130046
0.129851
0.128302
0.130557
0.127578
0.129278
0.125502
0.129209
0.12903
0.12962
0.128093
0.127975
0.128435
0.128034
0.126258
0.128657
0.128499
0.129462
0.129131
0.129569
0.129784
0.127009
0.130201
0.129366
0.130544
0.130065
0.129752
0.130829
0.130209
0.130964
0.130218
0.130949
0.130237
0.131005
0.130257
0.131067
0.130281
0.13106
0.129944
0.130735
0.130499
0.130709
0.13037
0.130609
0.130661
0.129853
0.129358
0.129591
0.128438
0.127765
0.128473
0.126397
0.128315
0.127944
0.128476
0.128223
0.128491
0.129591
0.12754
0.129235
0.125434
0.129256
0.131153
0.129432
0.129337
0.12868
0.133258
0.12821
0.129194
0.124754
0.129194
0.129823
0.127979
0.129261
0.127286
0.12785
0.123004
0.132769
0.130317
0.132268
0.132252
0.131488
0.127701
0.126345
0.129818
0.127315
0.128675
0.124993
0.132376
0.129536
0.127592
0.124526
0.128158
0.126085
0.129357
0.128931
0.123943
0.12893
0.127669
0.132788
0.130298
0.127005
0.129851
0.130626
0.129279
0.125817
0.129206
0.126914
0.129149
0.129345
0.127252
0.128046
0.128035
0.125823
0.128005
0.127589
0.128098
0.127728
0.128165
0.128654
0.127619
0.12815
0.128991
0.128648
0.129289
0.129136
0.128632
0.129209
0.128715
0.129273
0.128783
0.129337
0.128819
0.129289
0.128798
0.129197
0.12878
0.129102
0.128764
0.128998
0.128914
0.128908
0.128908
0.128786
0.128852
0.128496
0.128811
0.128625
0.126592
0.128419
0.128101
0.128315
0.126072
0.128207
0.128118
0.127279
0.128223
0.129199
0.129153
0.125363
0.129235
0.126801
0.131184
0.12953
0.126411
0.129339
0.133364
0.129196
0.125999
0.129193
0.12613
0.129867
0.126858
0.129264
0.127853
0.122464
0.127851
0.13128
0.128411
0.131025
0.131726
0.128319
0.131482
0.126007
0.129876
0.128015
0.12791
0.128055
0.132383
0.12907
0.123982
0.127593
0.127847
0.127614
0.129217
0.127512
0.12893
0.124165
0.128932
0.133491
0.131217
0.129849
0.128671
0.131288
0.127501
0.129205
0.125269
0.129147
0.128724
0.129402
0.128093
0.12833
0.127534
0.128005
0.126198
0.128361
0.127996
0.128339
0.128175
0.12903
0.128712
0.12698
0.128907
0.129009
0.129321
0.128414
0.129392
0.128903
0.129676
0.129018
0.129718
0.128978
0.129751
0.129039
0.129706
0.129079
0.12964
0.129105
0.12925
0.128755
0.129494
0.129456
0.129367
0.129456
0.128889
0.129327
0.128467
0.128871
0.128438
0.127513
0.128419
0.126187
0.128315
0.127588
0.128564
0.128223
0.12844
0.129374
0.127516
0.129152
0.125297
0.129236
0.131158
0.130454
0.129339
0.129041
0.133421
0.129142
0.129194
0.124521
0.129158
0.129727
0.12798
0.128625
0.128653
0.127852
0.123325
0.129733
0.129813
0.131166
0.131628
0.131482
0.128448
0.125848
0.12933
0.129767
0.128189
0.125057
0.132626
0.128148
0.127593
0.124315
0.129217
0.126121
0.130521
0.128931
0.123921
0.12893
0.127745
0.133496
0.130267
0.127086
0.129849
0.131218
0.129206
0.125959
0.129145
0.127032
0.129095
0.129205
0.127315
0.128302
0.128005
0.125634
0.127949
0.1279
0.127928
0.12792
0.127928
0.128446
0.127345
0.128125
0.127802
0.128152
0.128582
0.12789
0.128414
0.12826
0.128441
0.128333
0.128516
0.128412
0.128579
0.128485
0.128565
0.128459
0.12853
0.128411
0.128494
0.128314
0.128456
0.128768
0.12837
0.128635
0.12818
0.128585
0.128148
0.12845
0.1265
0.128438
0.128177
0.128418
0.126018
0.128317
0.128869
0.127389
0.128301
0.12894
0.129034
0.125391
0.129152
0.126646
0.130577
0.129851
0.127146
0.129341
0.133413
0.129197
0.125845
0.129157
0.125171
0.128897
0.126747
0.129656
0.129202
0.122378
0.127852
0.130465
0.128447
0.130522
0.131496
0.128462
0.13148
0.126249
0.127019
0.129762
0.128538
0.128055
0.13248
0.129724
0.12397
0.127596
0.129227
0.127617
0.13068
0.126871
0.12893
0.123771
0.128933
0.133263
0.13032
0.129848
0.128786
0.130962
0.127541
0.129145
0.125295
0.129094
0.128743
0.129272
0.128135
0.128547
0.12748
0.128005
0.126298
0.128062
0.128056
0.127829
0.128121
0.128736
0.128125
0.126806
0.128411
0.128037
0.128575
0.128354
0.127963
0.1287
0.128394
0.128724
0.128458
0.128712
0.128476
0.128705
0.12851
0.128688
0.128526
0.128702
0.128314
0.128517
0.12886
0.128429
0.128975
0.128453
0.128665
0.128434
0.128499
0.128072
0.12845
0.127504
0.128437
0.126219
0.128418
0.127771
0.129191
0.128268
0.128752
0.12938
0.127752
0.129152
0.125122
0.129236
0.130111
0.129869
0.129341
0.128695
0.133421
0.130243
0.129195
0.124352
0.128988
0.128977
0.127984
0.130341
0.128075
0.127853
0.123096
0.130396
0.129808
0.129938
0.132129
0.13148
0.128709
0.125172
0.127227
0.128903
0.128264
0.125227
0.131802
0.129185
0.127594
0.124714
0.128906
0.126878
0.130944
0.128931
0.123714
0.128931
0.127429
0.13343
0.131064
0.127745
0.129848
0.130867
0.129145
0.125515
0.129093
0.127183
0.129051
0.12902
0.127453
0.128545
0.128035
0.125784
0.128005
0.128024
0.127827
0.127959
0.127827
0.128147
0.127294
0.128048
0.127501
0.128125
0.128044
0.127808
0.127606
0.128248
0.128016
0.128304
0.12808
0.128361
0.128087
0.128424
0.128006
0.128411
0.127973
0.128319
0.127866
0.128295
0.127913
0.128349
0.128079
0.12853
0.128029
0.128475
0.128267
0.128463
0.126659
0.128449
0.128268
0.128436
0.125989
0.12842
0.129184
0.127423
0.128648
0.12989
0.129153
0.125561
0.129235
0.126746
0.130669
0.130585
0.127387
0.12941
0.132936
0.12996
0.126317
0.129194
0.125552
0.129223
0.126791
0.130339
0.128189
0.122405
0.127853
0.129714
0.128993
0.13009
0.133697
0.129308
0.13167
0.126336
0.129053
0.131306
0.128303
0.128056
0.131198
0.128617
0.124216
0.127596
0.130116
0.127618
0.130878
0.127117
0.12893
0.124147
0.128933
0.13342
0.130378
0.129848
0.129204
0.130741
0.127712
0.129145
0.125396
0.129094
0.128872
0.129358
0.128173
0.128877
0.127725
0.128034
0.126417
0.128331
0.128259
0.127804
0.128085
0.128311
0.128048
0.126898
0.128117
0.127914
0.128294
0.1276
0.128066
0.128227
0.128305
0.128036
0.128364
0.128051
0.128423
0.128006
0.128474
0.127974
0.128474
0.12802
0.128296
0.127831
0.128416
0.127993
0.12858
0.128063
0.12845
0.128113
0.128684
0.127828
0.128463
0.127571
0.128523
0.126182
0.128437
0.127737
0.129191
0.128291
0.128992
0.130258
0.128077
0.129178
0.125446
0.129301
0.131332
0.129654
0.12941
0.128447
0.132552
0.129183
0.129265
0.124696
0.129196
0.130464
0.127985
0.130338
0.128491
0.127854
0.123169
0.132154
0.129808
0.13074
0.133571
0.131384
0.128352
0.124886
0.128988
0.131601
0.128349
0.125152
0.131736
0.127835
0.127595
0.125337
0.130208
0.126664
0.130381
0.128932
0.123836
0.128931
0.128534
0.13261
0.130422
0.127821
0.129848
0.130626
0.129206
0.126466
0.129145
0.127434
0.129095
0.129317
0.127549
0.129062
0.128126
0.126141
0.128035
0.128412
0.127858
0.12798
0.127827
0.128027
0.127222
0.128001
0.127429
0.128265
0.1276
0.127808
0.1276
0.128176
0.128007
0.128173
0.128011
0.128206
0.127985
0.128281
0.127972
0.128345
0.127871
0.128314
0.127831
0.128296
0.127831
0.128314
0.127891
0.128411
0.127978
0.128438
0.128629
0.128474
0.126781
0.128464
0.128812
0.128448
0.12611
0.128449
0.129164
0.127567
0.128892
0.130271
0.129179
0.125728
0.129177
0.126986
0.131373
0.129638
0.127318
0.12941
0.132835
0.129838
0.126403
0.129265
0.125579
0.130487
0.126716
0.130393
0.128811
0.122876
0.127854
0.132232
0.129402
0.130076
0.132806
0.128483
0.13138
0.126418
0.127722
0.131506
0.128687
0.128056
0.131826
0.12798
0.124259
0.127597
0.129411
0.127617
0.131179
0.12664
0.128931
0.124398
0.128934
0.133232
0.130712
0.129847
0.129497
0.132083
0.127926
0.129206
0.125801
0.129147
0.129521
0.129643
0.128209
0.12909
0.127849
0.128126
0.126805
0.128331
0.128358
0.127771
0.128083
0.128443
0.128001
0.126953
0.127937
0.128038
0.127988
0.127466
0.127839
0.128119
0.128156
0.128008
0.128175
0.127963
0.128199
0.127976
0.128282
0.127921
0.128382
0.127883
0.128314
0.127713
0.128317
0.127872
0.128439
0.127974
0.128476
0.128073
0.128684
0.127889
0.128473
0.127618
0.1291
0.126596
0.128448
0.127784
0.129173
0.128322
0.129173
0.130234
0.128154
0.129178
0.125698
0.129178
0.131968
0.130477
0.12941
0.129015
0.132774
0.130482
0.129306
0.12501
0.129266
0.130444
0.127986
0.130257
0.128458
0.127854
0.123546
0.131792
0.129916
0.130192
0.132366
0.131334
0.128504
0.124944
0.127304
0.129668
0.129288
0.125398
0.132105
0.127544
0.127596
0.125545
0.129527
0.126307
0.13119
0.128932
0.124187
0.128932
0.128147
0.134475
0.130516
0.127812
0.129848
0.132394
0.12928
0.125919
0.129206
0.127697
0.129582
0.129506
0.127623
0.128933
0.128148
0.126245
0.128064
0.128023
0.128
0.12798
0.127862
0.129148
0.127208
0.127919
0.127472
0.127894
0.127594
0.127834
0.127594
0.128149
0.127932
0.128156
0.127993
0.128161
0.127985
0.128187
0.127991
0.128258
0.127926
0.128327
0.127856
0.128314
0.127912
0.12841
0.12798
0.128437
0.128123
0.128519
0.128402
0.128489
0.126953
0.128475
0.129105
0.128461
0.126248
0.128462
0.129074
0.127655
0.129053
0.129721
0.129179
0.12594
0.129177
0.127389
0.13228
0.129561
0.127605
0.129499
0.13226
0.130152
0.126241
0.129305
0.1256
0.12978
0.126905
0.129535
0.128985
0.123119
0.127854
0.132012
0.129838
0.130871
0.132241
0.129089
0.131331
0.126418
0.128713
0.129533
0.130032
0.128056
0.132055
0.127597
0.124538
0.127598
0.130473
0.127617
0.13082
0.127031
0.128931
0.124508
0.128934
0.134455
0.130232
0.129848
0.129168
0.132339
0.128217
0.129279
0.125977
0.12921
0.130191
0.129687
0.128244
0.12911
0.128082
0.128148
0.126972
0.128461
0.128465
0.127827
0.128143
0.129165
0.128001
0.127112
0.127922
0.128082
0.127943
0.127557
0.12787
0.128117
0.128023
0.12792
0.128157
0.127993
0.128163
0.127965
0.128186
0.127948
0.128285
0.127912
0.128254
0.127807
0.12839
0.127933
0.128478
0.128006
0.128514
0.128119
0.128984
0.128032
0.128488
0.12775
0.129116
0.126363
0.128462
0.127877
0.129173
0.128357
0.129368
0.129719
0.128241
0.129178
0.125703
0.129178
0.132436
0.129738
0.129499
0.128569
0.132608
0.129928
0.129306
0.125151
0.129305
0.130947
0.127986
0.128402
0.129175
0.127856
0.12401
0.131976
0.130235
0.130794
0.131788
0.130844
0.128324
0.124917
0.130408
0.130446
0.13032
0.125347
0.13268
0.127127
0.127597
0.125331
0.13073
0.126719
0.13209
0.128933
0.124225
0.128932
0.128394
0.133974
0.130427
0.12806
0.129848
0.133092
0.12937
0.127229
0.129279
0.127972
0.130418
0.129541
0.127774
0.129278
0.128248
0.126568
0.128148
0.12889
0.128215
0.128019
0.127878
0.128605
0.127322
0.128001
0.127642
0.128718
0.1276
0.127834
0.127601
0.128129
0.127917
0.128078
0.12798
0.128139
0.128009
0.128168
0.127991
0.128168
0.127963
0.128222
0.127903
0.128254
0.127984
0.128405
0.128165
0.128514
0.128117
0.128562
0.129182
0.128518
0.127221
0.128492
0.129085
0.128472
0.1264
0.128473
0.129558
0.127788
0.129258
0.13059
0.129179
0.126017
0.129177
0.127468
0.132648
0.130812
0.127849
0.129566
0.133641
0.130584
0.126555
0.129305
0.125629
0.131035
0.126875
0.129983
0.129121
0.123645
0.127856
0.131461
0.129084
0.130484
0.131136
0.128827
0.13084
0.126461
0.131263
0.130604
0.132052
0.128057
0.132748
0.127599
0.124957
0.127598
0.130808
0.127625
0.132147
0.126873
0.128932
0.124634
0.128935
0.133242
0.130981
0.129848
0.130204
0.133163
0.128384
0.129369
0.126367
0.129285
0.130447
0.129788
0.128283
0.129505
0.128148
0.128247
0.127396
0.128981
0.128808
0.12788
0.128392
0.129141
0.128048
0.127267
0.128001
0.128632
0.127989
0.127575
0.128018
0.128056
0.128031
0.127973
0.128065
0.127943
0.128116
0.12801
0.128188
0.128055
0.128283
0.12808
0.128338
0.128057
0.128454
0.128128
0.128526
0.128131
0.128562
0.128268
0.129223
0.128383
0.128517
0.127965
0.129298
0.126977
0.128472
0.128679
0.129595
0.128705
0.129502
0.130647
0.128447
0.129178
0.126206
0.129339
0.132718
0.130531
0.129566
0.128094
0.133592
0.131091
0.129307
0.125402
0.129306
0.130975
0.127986
0.132237
0.12912
0.127857
0.123696
0.130331
0.130235
0.131559
0.132666
0.130841
0.128697
0.12472
0.131227
0.13064
0.132231
0.125282
0.132807
0.127781
0.127597
0.125887
0.130809
0.128121
0.131625
0.128934
0.124461
0.128933
0.128089
0.134587
0.130353
0.128267
0.12999
0.132565
0.129458
0.126595
0.129369
0.128237
0.130187
0.129708
0.127913
0.129456
0.128308
0.126621
0.128248
0.128836
0.128537
0.128086
0.12805
0.129363
0.127548
0.128048
0.1277
0.128376
0.127736
0.12788
0.127742
0.127979
0.127864
0.128027
0.127921
0.128125
0.128016
0.128179
0.128076
0.128247
0.128108
0.128349
0.128163
0.128395
0.12823
0.1285
0.128223
0.128562
0.128231
0.128589
0.129086
0.128572
0.12763
0.128522
0.129523
0.128487
0.126616
0.128796
0.129502
0.128864
0.129455
0.130456
0.129182
0.12647
0.129339
0.127543
0.132688
0.130704
0.127721
0.129567
0.133714
0.131093
0.126887
0.129306
0.125562
0.131227
0.126802
0.132552
0.129457
0.124097
0.127857
0.132411
0.128942
0.133639
0.133478
0.130453
0.131331
0.126483
0.131207
0.130709
0.131861
0.128178
0.132299
0.128798
0.125081
0.127598
0.13067
0.129691
0.130989
0.127008
0.128933
0.124825
0.129367
0.134575
0.130438
0.12999
0.129802
0.132483
0.128502
0.129457
0.126603
0.129377
0.129827
0.129948
0.128328
0.129613
0.12832
0.128308
0.127447
0.129148
0.129105
0.128165
0.128733
0.129386
0.128126
0.127469
0.12805
0.129067
0.128225
0.127915
0.128386
0.128332
0.128306
0.128337
0.128491
0.128242
0.128425
0.128267
0.128405
0.128278
0.128473
0.128274
0.128475
0.12828
0.1285
0.128205
0.128578
0.128169
0.128651
0.128567
0.129105
0.128719
0.128571
0.128717
0.130284
0.127062
0.128487
0.128851
0.12964
0.129195
0.129652
0.130236
0.129018
0.12934
0.126238
0.129429
0.132468
0.131161
0.129566
0.12904
0.133676
0.132215
0.129308
0.125692
0.129308
0.131438
0.129079
0.132241
0.130282
0.127858
0.12404
0.132403
0.130234
0.133549
0.133071
0.131334
0.128721
0.125046
0.131086
0.130924
0.131814
0.125758
0.134015
0.128357
0.127598
0.125532
0.130715
0.128993
0.131343
0.128935
0.124721
0.128934
0.130202
0.134273
0.131167
0.128353
0.130947
0.132674
0.1295
0.126806
0.129458
0.128342
0.130906
0.130114
0.128102
0.130218
0.128485
0.12686
0.128351
0.129442
0.12884
0.12839
0.128426
0.129095
0.127509
0.128126
0.12791
0.129295
0.128113
0.128127
0.128222
0.128346
0.12829
0.128438
0.128372
0.128436
0.128325
0.12845
0.128293
0.128472
0.128308
0.128486
0.128347
0.1285
0.12831
0.128577
0.128531
0.128589
0.128511
0.128659
0.128927
0.128643
0.128016
0.128676
0.130388
0.128516
0.126969
0.128976
0.129735
0.129134
0.129582
0.131154
0.129345
0.126797
0.129428
0.127646
0.132644
0.131332
0.127845
0.12962
0.13344
0.132212
0.127413
0.129308
0.126135
0.132604
0.128717
0.131409
0.1306
0.124183
0.127858
0.132185
0.128469
0.133353
0.134888
0.130096
0.13167
0.126498
0.131178
0.13121
0.133187
0.128235
0.134034
0.128434
0.125215
0.127599
0.130688
0.128951
0.131691
0.127312
0.128934
0.124837
0.12996
0.134302
0.13072
0.129991
0.130439
0.132669
0.12877
0.129499
0.126525
0.129469
0.13093
0.130605
0.128379
0.130445
0.128797
0.128361
0.127377
0.130051
0.129389
0.128338
0.129066
0.129486
0.128151
0.1274
0.128127
0.129322
0.128889
0.128608
0.128907
0.128808
0.128767
0.128636
0.12866
0.1285
0.128554
0.128371
0.128513
0.128392
0.128555
0.128422
0.128573
0.128353
0.128579
0.128263
0.128781
0.128501
0.128885
0.128858
0.129516
0.128991
0.128643
0.129033
0.130416
0.127538
0.128517
0.12966
0.131043
0.129229
0.129771
0.131182
0.128896
0.129428
0.126203
0.129429
0.132631
0.131042
0.12962
0.128691
0.133219
0.130748
0.129393
0.126458
0.129312
0.132581
0.128755
0.132068
0.12964
0.127858
0.123914
0.13101
0.130234
0.133019
0.134753
0.131671
0.128367
0.12549
0.130735
0.130775
0.133287
0.125757
0.134362
0.128821
0.127599
0.127158
0.129972
0.129175
0.131913
0.128938
0.124877
0.128937
0.129886
0.134407
0.130772
0.128889
0.130207
0.132677
0.129567
0.127142
0.1295
0.128197
0.130579
0.130553
0.128165
0.130442
0.128793
0.126897
0.128398
0.13003
0.129207
0.128459
0.129017
0.12997
0.127758
0.128151
0.128028
0.129123
0.128943
0.129252
0.128788
0.128735
0.128601
0.128631
0.128514
0.128585
0.12845
0.128537
0.128421
0.128569
0.128456
0.128581
0.128458
0.128577
0.128504
0.128617
0.128515
0.128669
0.128698
0.128776
0.129804
0.12879
0.128498
0.128831
0.130414
0.12857
0.127413
0.128761
0.131083
0.129252
0.12983
0.13092
0.129431
0.126822
0.129428
0.128772
0.132333
0.131144
0.128025
0.129665
0.13344
0.131448
0.127523
0.129392
0.126745
0.132538
0.128559
0.132259
0.128827
0.12454
0.127861
0.131345
0.128739
0.133316
0.134716
0.129218
0.13167
0.126585
0.131161
0.13089
0.132617
0.128311
0.13491
0.12868
0.126356
0.128455
0.130446
0.1289
0.1323
0.127321
0.128937
0.125799
0.129921
0.135561
0.131471
0.130207
0.13033
0.132596
0.129369
0.129566
0.127007
0.129512
0.131713
0.130786
0.128947
0.130437
0.129125
0.128414
0.127854
0.130051
0.129535
0.128392
0.129683
0.130011
0.128215
0.127712
0.129095
0.129493
0.129279
0.129251
0.129169
0.129101
0.128844
0.128757
0.128762
0.128592
0.128671
0.128575
0.128667
0.128517
0.12869
0.12861
0.128661
0.128472
0.128704
0.128599
0.12884
0.128766
0.129077
0.129067
0.129747
0.128888
0.128793
0.12909
0.130416
0.128238
0.128571
0.129101
0.131007
0.129258
0.130144
0.132217
0.129197
0.12943
0.127408
0.129637
0.132363
0.132013
0.129665
0.129066
0.134929
0.132256
0.129461
0.126718
0.129398
0.133433
0.128755
0.132235
0.130339
0.127862
0.124458
0.134232
0.130352
0.133104
0.134396
0.131671
0.128252
0.125642
0.131184
0.131014
0.133592
0.125894
0.134961
0.129139
0.129219
0.128612
0.131482
0.128993
0.13297
0.12894
0.125441
0.128939
0.129732
0.135935
0.131564
0.130001
0.131207
0.133358
0.129661
0.12749
0.129566
0.128716
0.131747
0.130888
0.128878
0.130571
0.129013
0.127295
0.128469
0.1298
0.13006
0.128495
0.1295
0.129832
0.128813
0.128215
0.12928
0.129955
0.129073
0.129071
0.12907
0.128863
0.128746
0.128777
0.12869
0.12871
0.128618
0.128723
0.128626
0.129158
0.12865
0.129025
0.128686
0.128645
0.128984
0.128915
0.129384
0.128854
0.128827
0.128901
0.130188
0.128988
0.128777
0.129149
0.130403
0.128643
0.128052
0.130225
0.130757
0.129268
0.130285
0.132277
0.129642
0.127586
0.12964
0.127664
0.132729
0.131063
0.128302
0.129708
0.135186
0.132291
0.127456
0.129461
0.12688
0.133507
0.128454
0.131375
0.129902
0.1249
0.127868
0.134524
0.128927
0.132613
0.135739
0.130146
0.13167
0.126775
0.130879
0.131031
0.133654
0.128342
0.134787
0.129085
0.129239
0.12871
0.131442
0.128658
0.132976
0.128521
0.128939
0.126543
0.129598
0.13587
0.131599
0.130336
0.130559
0.133486
0.128968
0.12966
0.127453
0.12958
0.131273
0.131275
0.129022
0.131128
0.129048
0.128469
0.127688
0.129937
0.130093
0.128902
0.130088
0.130064
0.13005
0.128366
0.129937
0.129989
0.129102
0.129156
0.129216
0.129146
0.128959
0.128868
0.128929
0.12868
0.12889
0.128862
0.128954
0.129195
0.128808
0.128947
0.128813
0.128745
0.129157
0.128851
0.129568
0.129073
0.128962
0.128973
0.130256
0.129661
0.128861
0.129192
0.130405
0.128597
0.128643
0.129749
0.131127
0.129274
0.130387
0.132095
0.129361
0.129642
0.126422
0.129643
0.133687
0.131289
0.129708
0.129412
0.135075
0.133045
0.129523
0.126772
0.129468
0.133153
0.128755
0.131109
0.129306
0.128036
0.127877
0.134524
0.130354
0.133872
0.13608
0.131683
0.12887
0.12674
0.131349
0.131397
0.13294
0.126239
0.134196
0.129076
0.128709
0.128595
0.130929
0.129056
0.132889
0.129086
0.126504
0.129085
0.129871
0.136732
0.131677
0.129192
0.130542
0.133414
0.129709
0.127508
0.12966
0.129082
0.131131
0.130538
0.129652
0.131098
0.129374
0.127318
0.128525
0.130795
0.129627
0.129578
0.130087
0.13111
0.130027
0.130394
0.129892
0.129686
0.129646
0.129182
0.129198
0.129577
0.128949
0.128947
0.128898
0.129704
0.128886
0.128943
0.12893
0.129
0.129299
0.12885
0.12876
0.128817
0.128809
0.128866
0.128891
0.128946
0.129419
0.129001
0.130179
0.129014
0.129116
0.129055
0.130471
0.129197
0.128471
0.129416
0.131397
0.129624
0.130708
0.132167
0.129645
0.126718
0.129642
0.128143
0.134033
0.13239
0.128772
0.130201
0.135305
0.133053
0.127103
0.129522
0.127138
0.133945
0.128358
0.131305
0.13016
0.128265
0.128659
0.133735
0.128961
0.133304
0.13596
0.130571
0.131817
0.126843
0.132803
0.13176
0.132235
0.128344
0.134336
0.130897
0.128602
0.12871
0.131036
0.12896
0.132865
0.128719
0.129085
0.126342
0.13082
0.136773
0.131967
0.130339
0.130976
0.133851
0.129159
0.129708
0.127242
0.12967
0.131412
0.130791
0.12975
0.131911
0.130244
0.128525
0.12799
0.130848
0.130437
0.129836
0.130354
0.13115
0.130004
0.130423
0.130342
0.129838
0.129905
0.129804
0.12943
0.129603
0.129118
0.129229
0.129158
0.129535
0.129322
0.129174
0.129094
0.129145
0.12984
0.128961
0.12903
0.129526
0.128877
0.129485
0.129874
0.128951
0.129494
0.129244
0.130717
0.128939
0.129111
0.129077
0.13087
0.128804
0.128744
0.129612
0.131422
0.129552
0.131854
0.13226
0.12938
0.129645
0.126616
0.129654
0.134621
0.131922
0.129781
0.130712
0.135956
0.133047
0.129526
0.126518
0.129526
0.133945
0.128755
0.132277
0.12946
0.128657
0.128553
0.134383
0.130354
0.132295
0.13629
0.131818
0.128617
0.127321
0.133945
0.133885
0.133174
0.126397
0.135262
0.130989
0.128732
0.128402
0.132151
0.128994
0.132995
0.129112
0.126005
0.129132
0.130718
0.136523
0.132278
0.130345
0.130682
0.133909
0.129761
0.127191
0.129708
0.128657
0.132532
0.131961
0.129819
0.131946
0.129425
0.12758
0.128582
0.130449
0.130696
0.130031
0.130689
0.130486
0.130029
0.130128
0.130093
0.13055
0.129888
0.129905
0.129469
0.12951
0.130029
0.129572
0.130355
0.129464
0.129379
0.129428
0.129968
0.129768
0.129797
0.129827
0.12957
0.129566
0.12987
0.129499
0.129796
0.129167
0.129163
0.130012
0.130877
0.12975
0.129008
0.129298
0.131302
0.128849
0.128893
0.129422
0.131339
0.129466
0.131362
0.133489
0.129795
0.127531
0.129654
0.129022
0.134639
0.131226
0.129174
0.130834
0.135968
0.132773
0.12803
0.129525
0.126851
0.133211
0.128358
0.132817
0.129024
0.128439
0.128657
0.135168
0.128881
0.133345
0.136811
0.129944
0.131817
0.127406
0.133982
0.135294
0.132892
0.12842
0.136686
0.131437
0.128422
0.128732
0.132212
0.129103
0.133094
0.12865
0.129131
0.126287
0.130754
0.137437
0.132294
0.130681
0.130472
0.133785
0.128826
0.12976
0.127134
0.12972
0.132583
0.131569
0.129854
0.131746
0.129685
0.128582
0.128217
0.131585
0.130673
0.130646
0.130943
0.131472
0.130265
0.130289
0.130069
0.130552
0.129868
0.129848
0.129511
0.129621
0.130165
0.130049
0.130491
0.129552
0.129678
0.129799
0.13015
0.129838
0.129754
0.129849
0.12959
0.129582
0.129998
0.129492
0.129595
0.129743
0.129209
0.129778
0.130878
0.129568
0.12911
0.129813
0.132479
0.128967
0.128929
0.129742
0.131718
0.129557
0.130937
0.133529
0.130504
0.129658
0.127751
0.12974
0.13461
0.131924
0.129838
0.131269
0.135541
0.132888
0.129573
0.127159
0.129535
0.134081
0.128755
0.134104
0.130422
0.128657
0.128294
0.135189
0.130355
0.132854
0.137083
0.131818
0.128529
0.127606
0.133854
0.135291
0.132907
0.128405
0.13674
0.132733
0.128732
0.128457
0.132139
0.129983
0.133064
0.12916
0.126141
0.129134
0.130698
0.137468
0.132532
0.130435
0.130708
0.13405
0.129763
0.126956
0.12976
0.128515
0.132313
0.131293
0.130039
0.132474
0.130416
0.127672
0.12864
0.131624
0.130698
0.130673
0.131515
0.131526
0.130035
0.130264
0.130271
0.130212
0.130203
0.130358
0.129888
0.130445
0.130066
0.130074
0.130066
0.130234
0.130421
0.129831
0.129849
0.12975
0.129797
0.129604
0.129589
0.129676
0.129684
0.130086
0.130122
0.129777
0.129935
0.129961
0.130754
0.129272
0.129098
0.129221
0.132523
0.129263
0.128781
0.130539
0.132582
0.129434
0.1313