/*--------------------------------*- C++ -*----------------------------------*\
| =========                 |                                                 |
| \\      /  F ield         | OpenFOAM: The Open Source CFD Toolbox           |
|  \\    /   O peration     | Version:  2312                                  |
|   \\  /    A nd           | Website:  www.openfoam.com                      |
|    \\/     M anipulation  |                                                 |
\*---------------------------------------------------------------------------*/
FoamFile
{
    version     2.0;
    format      ascii;
    arch        "LSB;label=32;scalar=64";
    class       volScalarField;
    location    "2";
    object      alphas;
}
// * * * * * * * * * * * * * * * * * * * * * * * * * * * * * * * * * * * * * //

dimensions      [0 0 0 0 0 0 0];

internalField   nonuniform List<scalar> 
50000
(
0.792942
0.808566
0.806899
0.798053
0.801384
0.805824
0.79455
0.793883
0.796675
0.804755
0.810075
0.805134
0.798775
0.795124
0.794748
0.79524
0.797859
0.804385
0.808091
0.807336
0.801454
0.797436
0.794999
0.795661
0.795881
0.795357
0.802277
0.806057
0.805399
0.796129
0.797987
0.796962
0.80044
0.799484
0.788499
0.789066
0.796787
0.782504
0.797516
0.781165
0.792826
0.780657
0.786804
0.781762
0.781043
0.779182
0.77879
0.778692
0.778885
0.778626
0.778971
0.7787
0.77879
0.778771
0.778985
0.78115
0.781338
0.779458
0.778985
0.78265
0.779439
0.784349
0.784825
0.803187
0.78561
0.798621
0.800681
0.802833
0.797056
0.79798
0.796229
0.805312
0.80552
0.803392
0.799362
0.795387
0.796729
0.795589
0.79682
0.798596
0.806442
0.809864
0.809037
0.800852
0.795073
0.796195
0.792923
0.797302
0.799499
0.80897
0.805744
0.795611
0.79691
0.799359
0.796969
0.799897
0.80349
0.806682
0.80482
0.80544
0.839279
0.839197
0.837898
0.835732
0.838766
0.836271
0.843164
0.840204
0.84281
0.837588
0.840973
0.838014
0.839499
0.844361
0.842895
0.840413
0.836106
0.838618
0.840066
0.838691
0.8368
0.838068
0.841992
0.841746
0.840314
0.835441
0.835289
0.835984
0.834939
0.833302
0.840006
0.83789
0.831807
0.828375
0.826739
0.824027
0.826592
0.822656
0.833128
0.822021
0.825421
0.820975
0.824758
0.821918
0.821051
0.82037
0.820165
0.820162
0.820249
0.82013
0.820265
0.820181
0.82016
0.820219
0.82031
0.821478
0.821589
0.820577
0.820335
0.821722
0.820429
0.824372
0.822442
0.829233
0.825989
0.838494
0.830753
0.834271
0.838479
0.83959
0.833698
0.834766
0.835889
0.836211
0.83549
0.838533
0.842096
0.841922
0.840182
0.836341
0.838164
0.840012
0.838705
0.836718
0.838518
0.840512
0.841962
0.842945
0.837841
0.840728
0.837374
0.840732
0.844956
0.839429
0.838519
0.837911
0.836728
0.837846
0.838491
0.836862
0.871548
0.869102
0.870289
0.864532
0.87227
0.859719
0.869075
0.872406
0.869213
0.865033
0.87017
0.868234
0.870389
0.871612
0.871066
0.869552
0.864386
0.868372
0.870467
0.86999
0.866962
0.870253
0.870882
0.870546
0.87067
0.866523
0.867409
0.868719
0.868054
0.866997
0.87195
0.871077
0.866571
0.865051
0.863957
0.862169
0.863646
0.862153
0.867713
0.862046
0.86236
0.861537
0.862923
0.862641
0.862201
0.861891
0.861497
0.861487
0.861475
0.861413
0.861373
0.86146
0.861389
0.861503
0.861456
0.861654
0.861484
0.861287
0.861605
0.861718
0.861139
0.862686
0.862714
0.864196
0.863458
0.870636
0.865773
0.867767
0.8715
0.871675
0.866938
0.867709
0.868668
0.868589
0.866299
0.869319
0.870988
0.870744
0.8709
0.866567
0.867544
0.871029
0.864922
0.865149
0.8684
0.871017
0.870805
0.871149
0.866907
0.872045
0.86781
0.869003
0.87288
0.872148
0.866344
0.868067
0.864462
0.868164
0.868831
0.86816
0.871618
0.86978
0.870249
0.864482
0.871944
0.863104
0.867995
0.873391
0.872406
0.871217
0.872384
0.868475
0.87018
0.871068
0.87289
0.871064
0.864331
0.868311
0.869995
0.870382
0.866943
0.869764
0.870547
0.872312
0.870625
0.86649
0.867239
0.869048
0.867438
0.866961
0.871845
0.870547
0.866516
0.865111
0.862425
0.86214
0.863675
0.862132
0.867574
0.862019
0.862753
0.861513
0.862673
0.862071
0.861602
0.86133
0.861318
0.861337
0.861383
0.861304
0.861404
0.861265
0.861345
0.861222
0.861382
0.861493
0.861777
0.861237
0.861327
0.861671
0.861118
0.862669
0.862664
0.864397
0.863421
0.870822
0.865752
0.867067
0.870988
0.871566
0.866911
0.867088
0.86896
0.868227
0.866289
0.86998
0.870745
0.87236
0.870809
0.866526
0.869225
0.870781
0.86815
0.865125
0.868735
0.870804
0.87268
0.870805
0.867107
0.872609
0.872261
0.869028
0.872186
0.873002
0.86631
0.8679
0.86445
0.868114
0.868275
0.870354
0.873403
0.871657
0.872386
0.868776
0.873383
0.86865
0.870904
0.872406
0.874008
0.870852
0.873758
0.870308
0.871068
0.874529
0.871068
0.871898
0.867562
0.869998
0.872344
0.870137
0.869814
0.870547
0.87307
0.870631
0.872152
0.869802
0.870824
0.872251
0.871824
0.870361
0.87319
0.871874
0.872006
0.87181
0.86775
0.868892
0.869034
0.867656
0.871747
0.867495
0.868314
0.867164
0.867553
0.868242
0.867442
0.868203
0.867404
0.868107
0.867324
0.868065
0.86727
0.867987
0.867203
0.867949
0.867225
0.867868
0.867297
0.867211
0.867339
0.867109
0.866882
0.869134
0.869618
0.869159
0.868364
0.872454
0.870586
0.871815
0.871566
0.87291
0.870315
0.871742
0.872197
0.871741
0.869642
0.870744
0.873407
0.87081
0.872179
0.870856
0.870844
0.8729
0.870783
0.868331
0.870805
0.872729
0.870806
0.873106
0.869759
0.873563
0.87267
0.872912
0.875893
0.872186
0.869494
0.870157
0.866441
0.868276
0.871434
0.868285
0.874121
0.871677
0.872092
0.868909
0.871944
0.868534
0.869425
0.87546
0.872407
0.870804
0.872385
0.870289
0.872141
0.871069
0.875114
0.871067
0.867609
0.870216
0.870145
0.872214
0.869562
0.871935
0.870632
0.873933
0.870716
0.869827
0.869904
0.871864
0.871452
0.870376
0.871879
0.873195
0.870497
0.869913
0.867762
0.868386
0.868885
0.867613
0.871437
0.867483
0.86758
0.86714
0.868504
0.867096
0.867637
0.866551
0.867382
0.866588
0.867445
0.866544
0.867394
0.866536
0.867337
0.866503
0.867337
0.866956
0.867558
0.866966
0.866835
0.867416
0.866844
0.867596
0.867659
0.869829
0.868346
0.871547
0.870482
0.870692
0.87328
0.871582
0.870255
0.871028
0.871744
0.870948
0.869564
0.872029
0.870745
0.873892
0.870809
0.869763
0.871149
0.870784
0.87162
0.86762
0.871043
0.870806
0.874785
0.870806
0.869813
0.87261
0.871684
0.871747
0.872186
0.875991
0.867944
0.869683
0.866475
0.869148
0.868383
0.870714
0.873573
0.873146
0.873122
0.870148
0.874614
0.86764
0.870189
0.872408
0.875813
0.872128
0.873472
0.870388
0.871069
0.875876
0.871069
0.872325
0.867447
0.870141
0.872746
0.870144
0.869716
0.870631
0.874027
0.870721
0.872983
0.870716
0.870425
0.872729
0.871864
0.871587
0.874132
0.871966
0.872344
0.871873
0.871431
0.871351
0.871636
0.87017
0.871787
0.869854
0.869967
0.869482
0.870485
0.869874
0.870407
0.869807
0.87037
0.869752
0.870291
0.869683
0.870255
0.869624
0.870188
0.869553
0.87012
0.869489
0.870056
0.869446
0.869683
0.869483
0.869356
0.870931
0.870584
0.870994
0.870383
0.873346
0.871561
0.871873
0.871582
0.873914
0.871582
0.871739
0.872675
0.871744
0.870576
0.870761
0.874518
0.870745
0.872883
0.86925
0.870662
0.872834
0.870662
0.867737
0.870804
0.873647
0.870807
0.874176
0.870095
0.873039
0.870462
0.872149
0.876689
0.872149
0.867723
0.870727
0.867619
0.868073
0.871625
0.868383
0.874187
0.871335
0.872852
0.870389
0.871945
0.867608
0.869607
0.875672
0.872408
0.871939
0.872386
0.870358
0.872533
0.87107
0.87541
0.871068
0.866991
0.869954
0.870149
0.871698
0.869443
0.872422
0.870722
0.874498
0.870791
0.87097
0.87038
0.871907
0.872025
0.871565
0.871966
0.873742
0.871343
0.871501
0.870538
0.870869
0.870431
0.870216
0.872991
0.869799
0.870634
0.869456
0.869935
0.870248
0.869171
0.869791
0.869036
0.869782
0.869051
0.869763
0.868995
0.869743
0.868933
0.869719
0.86894
0.870056
0.869265
0.869501
0.869291
0.86963
0.869391
0.869339
0.870147
0.870642
0.870409
0.871562
0.872235
0.871527
0.873603
0.871685
0.872056
0.871524
0.871777
0.871509
0.870409
0.87246
0.870765
0.874566
0.870744
0.868847
0.870568
0.870663
0.87132
0.866742
0.87179
0.870806
0.875246
0.870806
0.870177
0.872021
0.870739
0.872714
0.87215
0.876996
0.867231
0.869683
0.867732
0.867748
0.868512
0.872299
0.873655
0.870182
0.872685
0.871325
0.875007
0.867624
0.870464
0.872408
0.875474
0.871842
0.873915
0.870643
0.871069
0.876057
0.87107
0.872331
0.867212
0.869702
0.872995
0.870149
0.869374
0.870721
0.874183
0.870794
0.873086
0.870851
0.870655
0.872748
0.871954
0.871965
0.874177
0.871995
0.872411
0.871902
0.872272
0.871835
0.871346
0.872381
0.87185
0.871009
0.871352
0.870711
0.870864
0.871368
0.870791
0.871285
0.870727
0.871217
0.870663
0.871181
0.870711
0.871202
0.870803
0.87122
0.870898
0.871236
0.871002
0.871086
0.871092
0.871092
0.871214
0.871148
0.871504
0.871189
0.871375
0.873408
0.871581
0.871899
0.871685
0.873928
0.871793
0.871882
0.872721
0.871777
0.870801
0.870847
0.874637
0.870765
0.873199
0.868816
0.87047
0.873589
0.870661
0.866636
0.870804
0.874001
0.870807
0.87387
0.870133
0.873142
0.870736
0.872147
0.877536
0.872149
0.86872
0.871589
0.868975
0.868274
0.871681
0.868518
0.873993
0.870124
0.871985
0.87209
0.871945
0.867617
0.87093
0.876018
0.872407
0.872153
0.872386
0.870783
0.872488
0.87107
0.875835
0.871068
0.866509
0.868783
0.870151
0.871329
0.868712
0.872499
0.870795
0.874731
0.870853
0.871276
0.870598
0.871907
0.87167
0.872466
0.871995
0.873802
0.871639
0.872004
0.871661
0.871825
0.87097
0.871288
0.87302
0.871093
0.870991
0.870679
0.871586
0.870608
0.871097
0.870324
0.870982
0.870282
0.871022
0.870249
0.870961
0.870294
0.870921
0.87036
0.870895
0.87075
0.871245
0.870506
0.870544
0.870633
0.870544
0.871111
0.870673
0.871533
0.871129
0.871562
0.872487
0.871581
0.873813
0.871685
0.872412
0.871436
0.871777
0.87156
0.870626
0.872484
0.870848
0.874703
0.870764
0.868842
0.869546
0.870661
0.870959
0.866579
0.870858
0.870806
0.875479
0.870842
0.870273
0.87202
0.871375
0.871347
0.872148
0.876675
0.870267
0.870187
0.868834
0.868372
0.868518
0.871552
0.874152
0.87067
0.870233
0.871811
0.874943
0.867374
0.871852
0.872407
0.875685
0.870783
0.873879
0.869479
0.871069
0.876079
0.87107
0.872255
0.866504
0.869733
0.872914
0.870151
0.868782
0.870794
0.874041
0.870855
0.872968
0.870905
0.870795
0.872685
0.871698
0.871995
0.874366
0.872051
0.8721
0.872072
0.87208
0.872072
0.871554
0.872655
0.871875
0.872198
0.871848
0.871418
0.87211
0.871586
0.87174
0.871559
0.871667
0.871484
0.871588
0.871421
0.871515
0.871435
0.871541
0.87147
0.871589
0.871506
0.871686
0.871544
0.871232
0.87163
0.871365
0.87182
0.871415
0.871852
0.87155
0.8735
0.871562
0.871823
0.871582
0.873982
0.871683
0.871131
0.872611
0.871699
0.87106
0.870966
0.874609
0.870848
0.873354
0.869423
0.870149
0.872854
0.870659
0.866587
0.870803
0.874155
0.870843
0.874829
0.871103
0.873253
0.870344
0.870798
0.877622
0.872148
0.869535
0.871553
0.869478
0.868504
0.871538
0.86852
0.873751
0.872981
0.870238
0.871462
0.871945
0.86752
0.870276
0.87603
0.872404
0.870773
0.872383
0.86932
0.873129
0.87107
0.876229
0.871067
0.866737
0.86968
0.870152
0.871214
0.869038
0.872459
0.870855
0.874705
0.870906
0.871257
0.870728
0.871865
0.871453
0.87252
0.871995
0.873702
0.871938
0.871944
0.872171
0.871879
0.871264
0.871875
0.873194
0.871589
0.871963
0.871425
0.871646
0.872037
0.8713
0.871606
0.871276
0.871542
0.871288
0.871524
0.871295
0.87149
0.871312
0.871474
0.871298
0.871686
0.871483
0.87114
0.871571
0.871025
0.871547
0.871335
0.871566
0.871501
0.871928
0.87155
0.872496
0.871563
0.873781
0.871582
0.872229
0.870809
0.871732
0.871248
0.87062
0.872248
0.870848
0.874878
0.870764
0.869889
0.870131
0.870659
0.871305
0.866579
0.869757
0.870805
0.875648
0.871012
0.871023
0.872016
0.869659
0.871925
0.872147
0.876904
0.869604
0.870192
0.870062
0.867871
0.86852
0.871291
0.874828
0.872773
0.871097
0.871736
0.874773
0.868198
0.870815
0.872406
0.875286
0.871094
0.873122
0.869056
0.871069
0.876286
0.871069
0.872571
0.86657
0.868936
0.872255
0.870152
0.869133
0.870855
0.874485
0.870907
0.872817
0.870949
0.87098
0.872547
0.871455
0.871965
0.874216
0.871995
0.871976
0.872173
0.872041
0.872173
0.871853
0.872706
0.871952
0.872499
0.871875
0.871956
0.872192
0.872394
0.871752
0.871984
0.871696
0.87192
0.871639
0.871913
0.871576
0.871994
0.871589
0.872027
0.871681
0.872134
0.871705
0.872087
0.871651
0.871921
0.87147
0.871971
0.871525
0.871733
0.871537
0.873341
0.871551
0.871732
0.871564
0.874011
0.87158
0.870816
0.872577
0.871352
0.87011
0.870847
0.874439
0.870765
0.873254
0.869331
0.869415
0.872613
0.87059
0.867064
0.87004
0.873683
0.870806
0.874448
0.870777
0.873209
0.869661
0.871811
0.877595
0.872147
0.870286
0.871007
0.86991
0.866303
0.870692
0.86833
0.873664
0.870947
0.868694
0.871697
0.871944
0.868802
0.871383
0.875784
0.872404
0.869884
0.872382
0.869122
0.872883
0.87107
0.875853
0.871067
0.86658
0.869622
0.870152
0.870796
0.869259
0.872288
0.870855
0.874604
0.870906
0.871128
0.870642
0.871827
0.871123
0.872275
0.871966
0.873583
0.871669
0.871741
0.872196
0.871915
0.871689
0.871952
0.873102
0.871883
0.872086
0.871706
0.8724
0.871934
0.871773
0.871695
0.871964
0.871636
0.871949
0.871577
0.871994
0.871526
0.872026
0.871526
0.87198
0.871704
0.872169
0.871584
0.872007
0.87142
0.871937
0.87155
0.871887
0.871316
0.872172
0.871537
0.872429
0.871477
0.873818
0.871563
0.872263
0.870809
0.871709
0.871008
0.869742
0.871923
0.870822
0.874554
0.870699
0.868668
0.870346
0.87059
0.871553
0.867448
0.870817
0.870735
0.875304
0.870804
0.869536
0.872015
0.869662
0.871509
0.872146
0.876831
0.867846
0.870192
0.86926
0.866429
0.868616
0.871648
0.875114
0.871012
0.868399
0.871651
0.874848
0.868264
0.872165
0.872405
0.874663
0.869792
0.873336
0.869619
0.871068
0.876164
0.871069
0.871466
0.86739
0.869578
0.872179
0.870152
0.869374
0.870794
0.873534
0.870855
0.872566
0.870905
0.870683
0.872451
0.870938
0.871874
0.873859
0.871965
0.871588
0.872142
0.87202
0.872173
0.871973
0.872778
0.871999
0.872571
0.871735
0.8724
0.872192
0.8724
0.871824
0.871993
0.871827
0.871989
0.871794
0.872015
0.871719
0.872028
0.871655
0.872129
0.871686
0.872169
0.871704
0.872169
0.871686
0.872109
0.871589
0.872022
0.871562
0.871371
0.871526
0.873219
0.871536
0.871188
0.871552
0.87389
0.871551
0.870836
0.872433
0.871108
0.869729
0.870821
0.874272
0.870823
0.873014
0.868627
0.870362
0.872682
0.87059
0.867165
0.870162
0.873597
0.870735
0.874421
0.869513
0.873284
0.869607
0.871189
0.877124
0.872146
0.867768
0.870598
0.869924
0.867194
0.871517
0.86862
0.873582
0.872278
0.868494
0.871313
0.871944
0.868174
0.87202
0.875741
0.872403
0.870589
0.872383
0.868821
0.87336
0.871069
0.875602
0.871066
0.866768
0.869288
0.870153
0.870503
0.867917
0.872074
0.870794
0.874199
0.870853
0.870479
0.870357
0.871791
0.87091
0.872151
0.871874
0.873195
0.871669
0.871642
0.872229
0.871917
0.871557
0.871999
0.873047
0.872063
0.871962
0.872012
0.872534
0.872161
0.871881
0.871844
0.871992
0.871825
0.872037
0.871801
0.872024
0.871718
0.872079
0.871618
0.872117
0.871686
0.872287
0.871683
0.872128
0.871561
0.872026
0.871524
0.871927
0.871316
0.872111
0.871527
0.872382
0.8709
0.873404
0.871552
0.872216
0.870827
0.871678
0.870827
0.869766
0.871846
0.870822
0.874302
0.870822
0.868032
0.869523
0.87059
0.870985
0.867226
0.869518
0.870694
0.87499
0.870734
0.869556
0.872014
0.869743
0.871542
0.872146
0.876454
0.868208
0.870084
0.869808
0.867634
0.868666
0.871496
0.875056
0.872696
0.870332
0.870712
0.874602
0.867895
0.872456
0.872404
0.874455
0.870473
0.873693
0.86881
0.871068
0.875813
0.871068
0.871853
0.865525
0.869484
0.872188
0.870152
0.867606
0.87072
0.874081
0.870794
0.872303
0.870418
0.870494
0.872377
0.871067
0.871852
0.873755
0.871936
0.871977
0.872
0.87202
0.872138
0.870852
0.872792
0.872081
0.872528
0.872106
0.872406
0.872166
0.872406
0.871851
0.872068
0.871844
0.872007
0.871839
0.872015
0.871813
0.872009
0.871742
0.872074
0.871673
0.872144
0.871686
0.872088
0.87159
0.87202
0.871563
0.871877
0.871481
0.871598
0.871511
0.873047
0.871525
0.870895
0.871539
0.873752
0.871538
0.870926
0.872345
0.870947
0.870279
0.870821
0.87406
0.870823
0.872611
0.86772
0.870439
0.872395
0.870501
0.86774
0.869848
0.873759
0.870695
0.8744
0.87022
0.873095
0.870465
0.871015
0.876881
0.872146
0.867988
0.870162
0.869129
0.867759
0.870911
0.868669
0.873582
0.871287
0.870467
0.869968
0.871944
0.867945
0.872403
0.875462
0.872402
0.869527
0.872383
0.86918
0.872969
0.871069
0.875492
0.871066
0.865545
0.869768
0.870152
0.870832
0.867661
0.871783
0.870721
0.874023
0.87079
0.869809
0.870313
0.871756
0.87089
0.871918
0.871852
0.873028
0.871539
0.871535
0.872173
0.871857
0.870835
0.871999
0.872888
0.872078
0.871918
0.872057
0.872443
0.87213
0.871883
0.871977
0.87208
0.871843
0.872007
0.871837
0.872035
0.871814
0.872052
0.871715
0.872088
0.871746
0.872193
0.87161
0.872067
0.871522
0.871994
0.871486
0.871881
0.871016
0.871968
0.871512
0.87225
0.870884
0.873637
0.871538
0.872123
0.870827
0.871643
0.870632
0.870281
0.871759
0.870822
0.874297
0.870822
0.867564
0.870262
0.870501
0.871431
0.867392
0.870072
0.870694
0.874849
0.870695
0.869053
0.872014
0.871598
0.870825
0.872144
0.87599
0.868024
0.869765
0.869206
0.868212
0.869156
0.871676
0.875083
0.869592
0.869554
0.86968
0.874653
0.86732
0.872873
0.872403
0.874669
0.86927
0.873281
0.86791
0.871067
0.875775
0.871068
0.871606
0.866026
0.869573
0.87194
0.870152
0.866908
0.87063
0.872771
0.870721
0.872028
0.869582
0.870459
0.872226
0.870722
0.871752
0.873432
0.871852
0.87111
0.871785
0.871981
0.872122
0.871395
0.872678
0.871999
0.872358
0.871282
0.8724
0.872166
0.872399
0.871871
0.872083
0.871922
0.87202
0.871861
0.871991
0.871832
0.872009
0.871832
0.872037
0.871778
0.872097
0.871746
0.872016
0.871595
0.871835
0.871486
0.871883
0.871438
0.870818
0.871482
0.872779
0.871508
0.870915
0.871528
0.8736
0.871527
0.870442
0.872212
0.870742
0.86941
0.870821
0.873983
0.870823
0.872532
0.867352
0.869188
0.872151
0.870434
0.866359
0.869416
0.873445
0.870695
0.874371
0.868965
0.873125
0.870017
0.870879
0.876355
0.872144
0.868539
0.870916
0.869516
0.868864
0.871173
0.86916
0.873539
0.868737
0.869396
0.867948
0.871943
0.867252
0.872401
0.875043
0.872402
0.869192
0.872375
0.867853
0.873127
0.871068
0.875366
0.871065
0.866758
0.869019
0.870152
0.869796
0.866837
0.871616
0.870631
0.873633
0.870715
0.869553
0.870212
0.871717
0.870495
0.871852
0.871753
0.872604
0.871019
0.871192
0.87212
0.871608
0.870859
0.871952
0.872733
0.871999
0.871368
0.872011
0.872425
0.871982
0.871944
0.871969
0.872027
0.871935
0.872057
0.871884
0.87199
0.871812
0.871945
0.871717
0.87192
0.871662
0.871943
0.871546
0.871872
0.871474
0.871869
0.871438
0.871732
0.870777
0.871617
0.871483
0.872035
0.870702
0.873023
0.871528
0.871321
0.870405
0.871295
0.870498
0.869353
0.871553
0.870822
0.873794
0.870661
0.867282
0.869469
0.870434
0.871906
0.866408
0.868909
0.870693
0.874598
0.870694
0.869025
0.872014
0.867763
0.87088
0.872143
0.876304
0.869669
0.869765
0.868441
0.867334
0.869159
0.871303
0.87528
0.868773
0.86936
0.867769
0.874718
0.867193
0.872219
0.872403
0.874113
0.869191
0.871879
0.868375
0.871066
0.875539
0.871067
0.871911
0.865413
0.869647
0.871733
0.87001
0.867435
0.870542
0.873405
0.870631
0.871763
0.869813
0.870292
0.872087
0.870544
0.871692
0.873379
0.871752
0.871164
0.871463
0.871914
0.87195
0.870637
0.872452
0.871952
0.8723
0.871624
0.872264
0.87212
0.872258
0.872021
0.872136
0.871973
0.872079
0.871875
0.871984
0.871821
0.871924
0.871753
0.871892
0.871651
0.871837
0.871605
0.87177
0.8715
0.871777
0.871438
0.871769
0.871411
0.870914
0.871428
0.87237
0.871478
0.870477
0.871513
0.873384
0.871204
0.870498
0.871136
0.870545
0.869544
0.870818
0.87353
0.870661
0.872457
0.867312
0.869296
0.872279
0.870433
0.866286
0.868907
0.873113
0.870694
0.874438
0.868773
0.873198
0.867448
0.870543
0.875903
0.872143
0.867589
0.871058
0.866361
0.866522
0.869547
0.868669
0.873517
0.868793
0.869291
0.868139
0.871822
0.867701
0.871202
0.874919
0.872402
0.86933
0.870309
0.869011
0.872992
0.871067
0.875175
0.870633
0.865425
0.869562
0.87001
0.870198
0.867517
0.871498
0.870543
0.873397
0.870623
0.870173
0.870052
0.871672
0.870387
0.87168
0.871692
0.872553
0.870852
0.870895
0.871835
0.871267
0.870614
0.871874
0.872531
0.87195
0.870933
0.871775
0.872085
0.871614
0.871668
0.871694
0.871663
0.871509
0.871758
0.871575
0.871733
0.871595
0.871722
0.871527
0.871726
0.871525
0.87172
0.8715
0.871795
0.871422
0.871831
0.871349
0.871433
0.870895
0.871281
0.871429
0.871283
0.869716
0.872938
0.871513
0.871149
0.87036
0.870805
0.870348
0.869764
0.870982
0.87066
0.873762
0.870571
0.867532
0.868839
0.870434
0.87096
0.866324
0.867785
0.870692
0.874308
0.870692
0.868562
0.870921
0.867759
0.869718
0.872142
0.87596
0.867597
0.869766
0.866451
0.866929
0.868666
0.871279
0.874954
0.868914
0.869076
0.868186
0.874242
0.865985
0.871643
0.872402
0.874468
0.869285
0.871007
0.868657
0.871065
0.875279
0.871066
0.869798
0.865727
0.868833
0.871647
0.869053
0.867326
0.8705
0.873194
0.870542
0.871658
0.869094
0.869886
0.871898
0.869782
0.871515
0.87314
0.871649
0.870558
0.87116
0.87161
0.871574
0.870905
0.872491
0.871874
0.87209
0.870705
0.871887
0.871873
0.871778
0.871654
0.87171
0.871562
0.871628
0.871564
0.871675
0.87155
0.871707
0.871528
0.871692
0.871514
0.871653
0.8715
0.87169
0.871423
0.871469
0.871411
0.871489
0.871341
0.871073
0.871357
0.871984
0.871324
0.869612
0.871484
0.873031
0.871024
0.870265
0.870866
0.870418
0.868846
0.870655
0.873203
0.870572
0.872354
0.867356
0.868668
0.872155
0.87038
0.86656
0.867788
0.872587
0.870692
0.873865
0.867396
0.871283
0.868591
0.8694
0.875817
0.872142
0.867815
0.871531
0.866647
0.865112
0.869904
0.86833
0.873502
0.868822
0.86879
0.866813
0.871765
0.865966
0.871566
0.874785
0.872401
0.869312
0.871049
0.868309
0.872688
0.871066
0.875163
0.87004
0.865698
0.86928
0.870009
0.869561
0.867331
0.87123
0.870501
0.873475
0.870531
0.86907
0.869395
0.871621
0.869555
0.871203
0.871639
0.872623
0.869949
0.870611
0.871662
0.870934
0.870514
0.871849
0.8726
0.871873
0.870678
0.871111
0.871392
0.871093
0.871192
0.871233
0.871364
0.87134
0.8715
0.871446
0.871629
0.871487
0.871608
0.871445
0.871578
0.871427
0.871647
0.871421
0.871737
0.871219
0.871499
0.871115
0.871142
0.870484
0.871009
0.871357
0.870967
0.869584
0.872462
0.871483
0.87034
0.868957
0.870771
0.870229
0.868818
0.871104
0.870572
0.873797
0.870571
0.867369
0.868958
0.87038
0.871309
0.866781
0.869252
0.870607
0.873542
0.870688
0.867419
0.871245
0.867932
0.87036
0.872142
0.876086
0.86899
0.869766
0.866981
0.865247
0.868329
0.871633
0.87451
0.869265
0.869225
0.866713
0.874243
0.865638
0.871179
0.872401
0.872842
0.870028
0.870825
0.868087
0.871062
0.875123
0.871063
0.870114
0.865593
0.869228
0.871111
0.869793
0.867323
0.870433
0.872858
0.8705
0.871803
0.869421
0.869447
0.871835
0.869558
0.871207
0.873103
0.871602
0.86997
0.870793
0.871541
0.870983
0.87003
0.872242
0.871849
0.871972
0.870877
0.871057
0.870748
0.871212
0.871265
0.871399
0.871369
0.871486
0.871415
0.87155
0.871463
0.871579
0.871431
0.871544
0.871419
0.871542
0.871423
0.871496
0.871383
0.871485
0.871331
0.871302
0.871224
0.870196
0.87121
0.871502
0.871169
0.869586
0.87143
0.872587
0.871239
0.868917
0.870748
0.87017
0.86908
0.870569
0.873178
0.870572
0.871228
0.867667
0.868856
0.871975
0.870335
0.86656
0.868552
0.872477
0.870608
0.873255
0.867462
0.871441
0.867741
0.871173
0.87546
0.872139
0.868655
0.871261
0.866684
0.865284
0.870782
0.86833
0.873415
0.868839
0.86911
0.867383
0.871689
0.86509
0.87132
0.873644
0.871545
0.869554
0.8711
0.8677
0.872679
0.871063
0.874201
0.870079
0.864439
0.868529
0.869793
0.86967
0.867404
0.870631
0.870434
0.872993
0.870488
0.868287
0.869214
0.871053
0.869563
0.870875
0.871586
0.872146
0.869949
0.870465
0.871608
0.870317
0.869989
0.871785
0.872288
0.870905
0.870507
0.870721
0.870749
0.870831
0.870899
0.871156
0.871243
0.871238
0.871408
0.871329
0.871425
0.871333
0.871483
0.87131
0.87139
0.871339
0.871528
0.871296
0.871401
0.87116
0.871234
0.870923
0.870933
0.870253
0.871112
0.871207
0.87091
0.869584
0.871762
0.871429
0.870899
0.868993
0.870742
0.869856
0.867783
0.870803
0.87057
0.872592
0.870363
0.867637
0.867987
0.870335
0.870934
0.865071
0.867744
0.870539
0.873282
0.870602
0.866567
0.871245
0.867765
0.869661
0.872138
0.875542
0.865768
0.869648
0.866896
0.865604
0.868329
0.871748
0.874358
0.868816
0.868986
0.866408
0.874106
0.865039
0.870861
0.870781
0.871388
0.868518
0.871007
0.86703
0.87106
0.874559
0.871061
0.870268
0.864065
0.868436
0.869999
0.868793
0.866642
0.870339
0.87251
0.870434
0.871284
0.868253
0.869112
0.871122
0.869429
0.870987
0.872705
0.871531
0.8702
0.86994
0.871505
0.8705
0.870168
0.871187
0.871785
0.87072
0.870045
0.870927
0.870929
0.87093
0.871137
0.871254
0.871223
0.87131
0.87129
0.871382
0.871277
0.871374
0.870842
0.87135
0.870975
0.871314
0.871355
0.871016
0.871085
0.870616
0.871146
0.871173
0.871099
0.869812
0.871012
0.871223
0.870851
0.869597
0.871357
0.871948
0.869775
0.869243
0.870732
0.869715
0.867723
0.870358
0.872414
0.87036
0.872336
0.867271
0.868937
0.871698
0.870292
0.864814
0.867709
0.872544
0.870539
0.87312
0.866493
0.871546
0.868625
0.870098
0.8751
0.872132
0.865476
0.871073
0.867387
0.864261
0.869854
0.86833
0.873225
0.869121
0.868969
0.866346
0.871658
0.865213
0.870915
0.870761
0.87129
0.868558
0.871342
0.867024
0.871479
0.871061
0.873457
0.870402
0.86413
0.868401
0.869664
0.869441
0.866514
0.871032
0.87034
0.872547
0.87042
0.868727
0.868725
0.870978
0.868872
0.870952
0.871531
0.872312
0.870063
0.869907
0.871098
0.869912
0.869936
0.86995
0.871634
0.870063
0.870011
0.870898
0.870844
0.870784
0.870854
0.871041
0.871132
0.871071
0.87132
0.87111
0.871138
0.871046
0.870805
0.871192
0.871053
0.871187
0.871255
0.870843
0.871149
0.870432
0.870927
0.871038
0.871027
0.869744
0.870339
0.871139
0.870808
0.869595
0.871403
0.871357
0.870251
0.868873
0.870726
0.869613
0.867905
0.870639
0.870358
0.873578
0.870357
0.866313
0.868711
0.870292
0.870588
0.864925
0.866955
0.870477
0.873228
0.870532
0.866847
0.871245
0.868891
0.870694
0.871964
0.872123
0.865476
0.869646
0.866128
0.86392
0.868317
0.87113
0.87326
0.868651
0.868603
0.86706
0.873761
0.865804
0.870924
0.871291
0.871405
0.869071
0.870944
0.867111
0.870914
0.873496
0.870915
0.870129
0.863268
0.868323
0.870808
0.869458
0.866586
0.870291
0.872492
0.87034
0.870918
0.868869
0.869462
0.870348
0.868902
0.870626
0.872682
0.871475
0.869205
0.870373
0.870422
0.869913
0.86889
0.869973
0.869606
0.870108
0.870314
0.870354
0.870818
0.870802
0.870423
0.871051
0.871053
0.871102
0.870296
0.871114
0.871057
0.87107
0.871
0.870701
0.87115
0.87124
0.871183
0.871191
0.871134
0.871109
0.871054
0.870581
0.870999
0.869821
0.870986
0.870884
0.870945
0.869529
0.870803
0.871529
0.870584
0.868603
0.870376
0.869292
0.867833
0.870355
0.873282
0.870358
0.871857
0.865967
0.86761
0.871228
0.869799
0.864695
0.866947
0.872897
0.870478
0.872862
0.866055
0.871642
0.868695
0.86984
0.871735
0.871341
0.866265
0.871039
0.866696
0.86404
0.869429
0.868183
0.873157
0.867197
0.86824
0.867765
0.871656
0.865664
0.869103
0.871398
0.87129
0.868964
0.87104
0.867135
0.871281
0.870915
0.873658
0.86918
0.863227
0.868033
0.869661
0.869024
0.866149
0.870841
0.870292
0.872758
0.87033
0.868588
0.869209
0.87025
0.868089
0.869756
0.871475
0.87201
0.869152
0.869563
0.870164
0.869646
0.86885
0.869996
0.869577
0.869658
0.870162
0.870095
0.870196
0.87057
0.870397
0.870882
0.870771
0.870842
0.870465
0.870678
0.870826
0.870906
0.870855
0.87016
0.871039
0.87097
0.870474
0.871123
0.870515
0.870126
0.871049
0.870506
0.870756
0.869283
0.871061
0.870889
0.870923
0.86913
0.871196
0.871256
0.870388
0.868578
0.870448
0.868146
0.86774
0.87062
0.870355
0.873384
0.870346
0.865379
0.868078
0.870219
0.869288
0.864044
0.866953
0.870474
0.873482
0.870474
0.866055
0.871245
0.867723
0.87054
0.871343
0.871447
0.865617
0.869646
0.867705
0.86371
0.868182
0.871383
0.872679
0.866055
0.866115
0.866826
0.873603
0.864738
0.869011
0.871268
0.871598
0.867849
0.871006
0.867005
0.870888
0.873995
0.870868
0.869282
0.863477
0.867722
0.869655
0.869318
0.866091
0.870239
0.872809
0.870292
0.871343
0.867468
0.868039
0.870181
0.868054
0.870575
0.87242
0.871418
0.869551
0.869304
0.869969
0.869311
0.869514
0.869971
0.869872
0.869907
0.86945
0.870112
0.870095
0.870531
0.87049
0.869971
0.870428
0.869645
0.870536
0.870621
0.870572
0.870032
0.870232
0.870203
0.870173
0.87043
0.870434
0.87013
0.870501
0.870204
0.870833
0.870837
0.869988
0.869123
0.87025
0.870992
0.870702
0.868698
0.871151
0.871107
0.870578
0.868661
0.870534
0.868638
0.866511
0.870205
0.872469
0.870346
0.870978
0.865361
0.868774
0.870826
0.869166
0.864032
0.867227
0.87197
0.870475
0.873149
0.866789
0.871642
0.867183
0.870976
0.871561
0.871343
0.864832
0.871119
0.866655
0.863189
0.870056
0.868183
0.872594
0.866018
0.864706
0.867108
0.87158
0.863314
0.868563
0.871578
0.871268
0.867788
0.870897
0.866906
0.87135
0.870869
0.873713
0.869246
0.862563
0.867706
0.869319
0.869528
0.866215
0.871174
0.87024
0.872866
0.87028
0.867417
0.868431
0.870146
0.868254
0.870315
0.871418
0.871783
0.868415
0.869327
0.869354
0.869057
0.868528
0.869735
0.869711
0.869931
0.869448
0.870132
0.870152
0.870489
0.870379
0.869835
0.869951
0.869509
0.870448
0.870322
0.870201
0.86985
0.870162
0.870246
0.870151
0.87041
0.870418
0.870002
0.870508
0.870405
0.870257
0.870791
0.870222
0.869122
0.870432
0.87089
0.870187
0.867521
0.871033
0.871071
0.870258
0.868282
0.870443
0.869063
0.866471
0.869496
0.870342
0.872249
0.87026
0.86539
0.868076
0.870162
0.868731
0.864459
0.867112
0.870427
0.872841
0.870465
0.865919
0.871245
0.865896
0.869578
0.871343
0.871706
0.864811
0.869645
0.867146
0.862917
0.868182
0.871471
0.872394
0.866146
0.864709
0.867093
0.871595
0.86326
0.867267
0.871268
0.871543
0.867861
0.870017
0.866936
0.87084
0.873859
0.870866
0.869302
0.862532
0.867468
0.869565
0.869292
0.86595
0.870237
0.873044
0.87024
0.871485
0.867687
0.868707
0.869961
0.867526
0.869584
0.872328
0.87136
0.868376
0.869302
0.869327
0.868485
0.868474
0.869965
0.869736
0.869729
0.869788
0.869797
0.869642
0.870112
0.869555
0.869934
0.869926
0.869934
0.869766
0.869579
0.870169
0.870151
0.87025
0.870203
0.870396
0.870411
0.870324
0.870316
0.869914
0.869878
0.870223
0.870065
0.870039
0.869246
0.870728
0.870902
0.870779
0.867477
0.870737
0.871219
0.869461
0.867418
0.870566
0.8687