/*--------------------------------*- C++ -*----------------------------------*\
| =========                 |                                                 |
| \\      /  F ield         | OpenFOAM: The Open Source CFD Toolbox           |
|  \\    /   O peration     | Version:  2312                                  |
|   \\  /    A nd           | Website:  www.openfoam.com                      |
|    \\/     M anipulation  |                                                 |
\*---------------------------------------------------------------------------*/
FoamFile
{
    version     2.0;
    format      ascii;
    arch        "LSB;label=32;scalar=64";
    class       volScalarField;
    location    "2";
    object      alpha.airMean;
}
// * * * * * * * * * * * * * * * * * * * * * * * * * * * * * * * * * * * * * //

dimensions      [0 0 0 0 0 0 0];

internalField   nonuniform List<scalar> 
50000
(
0.207933
0.196724
0.194656
0.206145
0.20386
0.196682
0.20557
0.206501
0.205433
0.203226
0.197598
0.197563
0.204178
0.205235
0.206523
0.205648
0.201605
0.201902
0.203421
0.20302
0.201424
0.204264
0.205734
0.205705
0.207482
0.203532
0.204356
0.206771
0.205597
0.208076
0.207633
0.209071
0.208421
0.210422
0.21204
0.212578
0.210612
0.213241
0.210457
0.213425
0.211631
0.213511
0.212594
0.213429
0.213451
0.2136
0.213718
0.213726
0.213639
0.213702
0.2137
0.213663
0.213717
0.21365
0.213686
0.213426
0.213416
0.213593
0.213633
0.213006
0.213592
0.212654
0.21312
0.208838
0.212757
0.207911
0.209194
0.207439
0.207626
0.208034
0.207726
0.205569
0.206399
0.204991
0.203131
0.207929
0.205468
0.205685
0.204887
0.201758
0.202953
0.203219
0.201632
0.201179
0.205406
0.206433
0.205677
0.204229
0.198861
0.196833
0.201297
0.206202
0.2061
0.205217
0.19784
0.203883
0.206433
0.198334
0.198884
0.202639
0.162771
0.164196
0.164296
0.165996
0.159325
0.166127
0.162561
0.161179
0.162099
0.165687
0.164187
0.165725
0.165286
0.161729
0.162415
0.165791
0.16722
0.167406
0.167842
0.168804
0.168329
0.16833
0.165422
0.164675
0.168164
0.169543
0.170232
0.171275
0.171423
0.172044
0.169869
0.171123
0.172691
0.173553
0.173332
0.174316
0.173701
0.174445
0.17254
0.174514
0.174004
0.17464
0.174106
0.174571
0.174644
0.174675
0.174733
0.174737
0.174693
0.174729
0.174719
0.1747
0.174728
0.174691
0.174718
0.174583
0.174577
0.174661
0.174677
0.174459
0.17466
0.173892
0.174523
0.173108
0.174015
0.170376
0.172898
0.17211
0.169845
0.170128
0.171943
0.171491
0.171216
0.170602
0.169829
0.168914
0.164857
0.165275
0.16821
0.168517
0.168952
0.167943
0.167434
0.167189
0.166168
0.162827
0.16199
0.164237
0.166037
0.163819
0.165906
0.16305
0.159785
0.162945
0.166006
0.159068
0.166205
0.165205
0.164341
0.16595
0.133613
0.136538
0.135496
0.136854
0.13011
0.140224
0.134251
0.132478
0.132893
0.137239
0.134809
0.136055
0.135041
0.131961
0.132947
0.135891
0.138024
0.135305
0.135546
0.136018
0.136685
0.135795
0.13391
0.133387
0.135851
0.136612
0.136728
0.137221
0.13744
0.137513
0.135711
0.136353
0.137566
0.137987
0.137927
0.138435
0.138084
0.138376
0.137393
0.138306
0.138366
0.138464
0.13821
0.138264
0.138393
0.138354
0.138383
0.138385
0.13833
0.138358
0.138432
0.138452
0.138446
0.138427
0.138422
0.138382
0.138378
0.138473
0.138332
0.138301
0.13846
0.138208
0.13837
0.137952
0.138287
0.136198
0.137675
0.137254
0.135747
0.135882
0.137379
0.137221
0.13745
0.136762
0.136849
0.136268
0.132951
0.133733
0.135433
0.13682
0.136278
0.13563
0.135268
0.138009
0.136184
0.133396
0.132491
0.1344
0.136322
0.133536
0.137636
0.133728
0.131165
0.133725
0.13902
0.130971
0.136515
0.137415
0.134149
0.134591
0.131314
0.134133
0.133234
0.135725
0.128648
0.137571
0.133209
0.129267
0.130809
0.135864
0.13193
0.133763
0.133771
0.130003
0.130087
0.134255
0.135874
0.134014
0.134845
0.134809
0.135202
0.134706
0.132286
0.131185
0.134309
0.135431
0.135271
0.136323
0.136437
0.136221
0.134609
0.135306
0.136506
0.136735
0.136939
0.137207
0.136931
0.13718
0.13626
0.137195
0.137126
0.137282
0.13705
0.13715
0.137287
0.13727
0.137298
0.137289
0.13728
0.137291
0.137306
0.137282
0.137313
0.137274
0.137313
0.137223
0.137224
0.13732
0.137244
0.137228
0.137282
0.137029
0.137162
0.13681
0.137058
0.135115
0.136513
0.136348
0.134618
0.134788
0.13621
0.136298
0.136332
0.135384
0.135585
0.134964
0.131568
0.131923
0.134362
0.135378
0.134927
0.134899
0.133965
0.135738
0.134679
0.13101
0.129892
0.1329
0.134525
0.131852
0.135756
0.131654
0.129339
0.132124
0.137018
0.12975
0.135029
0.135411
0.132867
0.133104
0.127819
0.129736
0.12963
0.130968
0.125064
0.133179
0.129473
0.127645
0.127226
0.132129
0.129162
0.129863
0.129574
0.126499
0.127704
0.129757
0.131227
0.130135
0.129403
0.129453
0.131039
0.129642
0.127944
0.128171
0.12893
0.130639
0.130571
0.131011
0.131014
0.131351
0.12973
0.129949
0.130553
0.130993
0.130994
0.131549
0.131477
0.131813
0.130955
0.131788
0.131646
0.131896
0.131376
0.131418
0.131795
0.131771
0.131807
0.131774
0.131822
0.131792
0.131852
0.131777
0.131861
0.131776
0.131872
0.131615
0.131668
0.131893
0.131781
0.131803
0.131862
0.131672
0.131685
0.131679
0.131727
0.13053
0.130915
0.130757
0.129831
0.12967
0.131422
0.130914
0.130865
0.130097
0.130423
0.12976
0.127554
0.128322
0.129316
0.13115
0.129742
0.129555
0.13026
0.131166
0.130351
0.127297
0.128384
0.128799
0.130742
0.128832
0.132205
0.128431
0.125684
0.128844
0.133459
0.125588
0.130754
0.131703
0.130341
0.129693
0.127484
0.129871
0.129718
0.130988
0.126941
0.133092
0.129949
0.125446
0.128434
0.132053
0.129058
0.129786
0.129828
0.127653
0.126234
0.130112
0.131413
0.130535
0.129552
0.129639
0.131094
0.13003
0.128609
0.127291
0.129702
0.130687
0.130442
0.130906
0.130819
0.131243
0.129957
0.130251
0.131209
0.131404
0.131628
0.131624
0.131473
0.131634
0.131231
0.131598
0.131826
0.131674
0.131566
0.131644
0.131763
0.131738
0.131739
0.131787
0.131704
0.131803
0.13171
0.131805
0.131714
0.131792
0.131733
0.131725
0.131669
0.131761
0.131757
0.131658
0.131743
0.131653
0.131778
0.131211
0.131701
0.130087
0.131181
0.13116
0.129704
0.130085
0.131325
0.130743
0.130799
0.130698
0.130718
0.130125
0.128334
0.127735
0.129839
0.131185
0.129721
0.129708
0.130329
0.131435
0.130411
0.128392
0.126287
0.129601
0.130511
0.129188
0.132109
0.128129
0.127309
0.128401
0.133391
0.127843
0.130745
0.131774
0.13073
0.128698
0.127325
0.128948
0.129192
0.129818
0.124004
0.132359
0.128624
0.127367
0.12632
0.13157
0.128502
0.129392
0.128638
0.125296
0.127185
0.128692
0.130348
0.129096
0.128329
0.128359
0.129881
0.128636
0.126861
0.127478
0.127872
0.129197
0.129226
0.12906
0.129005
0.129708
0.128335
0.128495
0.129121
0.129473
0.129417
0.129457
0.129643
0.129427
0.129381
0.129585
0.129799
0.12972
0.129592
0.12965
0.129817
0.129791
0.129811
0.129827
0.129817
0.12984
0.12981
0.129844
0.1298
0.129813
0.129836
0.129722
0.129736
0.129783
0.129785
0.129545
0.129581
0.129358
0.129767
0.129606
0.129722
0.128627
0.129048
0.12942
0.128303
0.128226
0.129708
0.129081
0.129128
0.12922
0.129342
0.12832
0.126445
0.127602
0.128266
0.130064
0.128709
0.128318
0.129123
0.130306
0.12947
0.126226
0.127918
0.127893
0.130073
0.128282
0.131619
0.12803
0.124545
0.128227
0.1328
0.124493
0.129722
0.131301
0.129852
0.128946
0.127131
0.129288
0.129275
0.129875
0.126657
0.132449
0.129236
0.12474
0.128076
0.131577
0.128617
0.129332
0.128902
0.127157
0.125489
0.12921
0.130555
0.129515
0.12849
0.128625
0.129938
0.12885
0.127735
0.126354
0.128591
0.12932
0.129389
0.129039
0.129234
0.129573
0.128475
0.128697
0.129521
0.129602
0.129658
0.12967
0.12968
0.129686
0.129166
0.129765
0.129622
0.129782
0.129607
0.129723
0.129802
0.129782
0.1298
0.129805
0.129803
0.129794
0.129815
0.129793
0.129821
0.129781
0.129828
0.129742
0.129748
0.129837
0.129747
0.129818
0.129707
0.129801
0.129712
0.129699
0.129585
0.128855
0.129336
0.129492
0.12833
0.128565
0.129584
0.129286
0.12901
0.129358
0.129433
0.128783
0.127628
0.126702
0.128698
0.130045
0.128674
0.128707
0.129277
0.130564
0.129521
0.127958
0.125629
0.128875
0.129924
0.128635
0.131572
0.127516
0.127055
0.127539
0.132753
0.127618
0.129676
0.131488
0.129982
0.127986
0.12636
0.128974
0.128938
0.129252
0.123459
0.132033
0.128113
0.127106
0.125921
0.131248
0.128162
0.129255
0.128076
0.124772
0.126789
0.128137
0.129848
0.128664
0.127908
0.127967
0.129226
0.128171
0.126301
0.127048
0.127331
0.128675
0.128272
0.128059
0.128242
0.128493
0.12744
0.127705
0.128391
0.128399
0.12822
0.128303
0.128579
0.128173
0.128049
0.12834
0.128555
0.12845
0.128348
0.128505
0.128628
0.128583
0.128596
0.128614
0.128642
0.128614
0.128628
0.128616
0.128611
0.128598
0.128612
0.128573
0.12854
0.128624
0.128542
0.128624
0.128409
0.128426
0.128429
0.128439
0.128074
0.127886
0.128038
0.128564
0.127603
0.127449
0.128508
0.128334
0.128123
0.128308
0.12868
0.1278
0.125943
0.127132
0.127698
0.129358
0.128284
0.127784
0.128566
0.129801
0.128935
0.125723
0.127519
0.127478
0.129906
0.127923
0.131343
0.127742
0.124073
0.127853
0.132284
0.124013
0.129062
0.131394
0.129511
0.128347
0.126305
0.129067
0.128997
0.129285
0.126331
0.132045
0.12854
0.124351
0.127731
0.131018
0.128142
0.12925
0.128107
0.126745
0.124968
0.128585
0.129942
0.12887
0.128011
0.128025
0.129259
0.128221
0.127173
0.125801
0.127921
0.128599
0.128482
0.128151
0.128243
0.128477
0.127631
0.127643
0.128567
0.128464
0.128455
0.128446
0.128599
0.128381
0.128236
0.128415
0.128576
0.128461
0.128386
0.128476
0.128589
0.128506
0.12854
0.128553
0.12855
0.128554
0.128543
0.128549
0.128554
0.128546
0.128564
0.128501
0.128522
0.128501
0.128608
0.128492
0.128599
0.128468
0.12861
0.128442
0.128546
0.12773
0.128356
0.128492
0.127357
0.127708
0.12848
0.128298
0.128205
0.128411
0.128682
0.128011
0.12712
0.126063
0.128092
0.129312
0.128203
0.128171
0.128677
0.129936
0.128906
0.127513
0.125096
0.128352
0.129715
0.128204
0.131228
0.12732
0.126725
0.126959
0.132135
0.127255
0.129072
0.131394
0.129677
0.12747
0.125727
0.128339
0.128795
0.128956
0.122941
0.131577
0.127498
0.126641
0.125666
0.130487
0.127615
0.128635
0.12749
0.124321
0.126315
0.127723
0.12927
0.128015
0.127304
0.127307
0.128567
0.127622
0.12568
0.126502
0.126755
0.128013
0.127488
0.127301
0.127509
0.127446
0.126594
0.126945
0.127697
0.127424
0.127321
0.127381
0.127748
0.127285
0.127266
0.127324
0.127569
0.127387
0.127323
0.127526
0.127619
0.127586
0.127617
0.12761
0.127647
0.127616
0.127647
0.127611
0.127656
0.127642
0.127666
0.127591
0.127622
0.127579
0.127632
0.127635
0.127655
0.12759
0.127604
0.127679
0.127241
0.127037
0.12731
0.12773
0.126954
0.126707
0.127564
0.127665
0.127382
0.127537
0.128071
0.127211
0.125385
0.126585
0.127119
0.128714
0.127645
0.127212
0.128006
0.129271
0.128429
0.125224
0.12706
0.126836
0.129147
0.127605
0.130767
0.127507
0.123577
0.127369
0.131552
0.123535
0.128622
0.13081
0.128993
0.127811
0.1254
0.127877
0.128785
0.128664
0.125568
0.131129
0.127803
0.123666
0.127064
0.13007
0.127323
0.128272
0.127266
0.126
0.124275
0.127705
0.129179
0.127847
0.127093
0.127145
0.128356
0.127361
0.126299
0.12498
0.126991
0.127744
0.127441
0.127109
0.127364
0.127294
0.126579
0.126597
0.127371
0.127252
0.127238
0.127254
0.127341
0.127197
0.12698
0.127202
0.127257
0.127196
0.127157
0.127154
0.127258
0.127194
0.127285
0.127262
0.127269
0.127278
0.127218
0.127293
0.127224
0.127309
0.127234
0.127231
0.127204
0.127283
0.127266
0.127347
0.127237
0.127306
0.127254
0.127351
0.127196
0.126799
0.127159
0.127429
0.126366
0.126695
0.127346
0.127408
0.127153
0.127365
0.127823
0.127068
0.126255
0.125248
0.12715
0.128419
0.127117
0.127275
0.127734
0.129214
0.128133
0.126777
0.124336
0.12752
0.128777
0.127388
0.130395
0.126716
0.125989
0.126203
0.131178
0.126504
0.128054
0.13061
0.128878
0.126772
0.124628
0.127563
0.127931
0.128247
0.122334
0.130728
0.126754
0.125925
0.125184
0.130059
0.126694
0.127836
0.126771
0.123543
0.12558
0.127176
0.12865
0.127206
0.126509
0.126667
0.127822
0.126786
0.124904
0.125766
0.125976
0.127224
0.126604
0.126436
0.126675
0.126439
0.125737
0.126012
0.12663
0.12644
0.126347
0.126449
0.126683
0.126324
0.126227
0.12632
0.126583
0.126342
0.126277
0.126396
0.126462
0.126442
0.126515
0.126543
0.126537
0.126532
0.126516
0.126529
0.126519
0.12657
0.126507
0.12655
0.126503
0.126541
0.126517
0.1266
0.126549
0.126567
0.126549
0.126681
0.126236
0.126108
0.126386
0.126772
0.126012
0.125819
0.126543
0.126812
0.126487
0.126644
0.127237
0.126439
0.124646
0.125841
0.126259
0.127901
0.127006
0.126407
0.127149
0.128518
0.127831
0.124566
0.126315
0.126186
0.12844
0.126684
0.130136
0.126773
0.122845
0.126631
0.130794
0.122889
0.127729
0.13034
0.128421
0.127023
0.124584
0.127472
0.12782
0.127956
0.124979
0.130451
0.12684
0.123092
0.126311
0.12978
0.126513
0.127354
0.126568
0.125285
0.123606
0.127181
0.128439
0.12706
0.126276
0.12637
0.127648
0.126508
0.125603
0.124326
0.126146
0.126908
0.126655
0.126203
0.126449
0.126317
0.125778
0.125667
0.126458
0.126323
0.126223
0.126181
0.126398
0.126096
0.126114
0.126122
0.126348
0.126143
0.12608
0.126177
0.126187
0.126178
0.126187
0.126193
0.126179
0.12621
0.126233
0.126184
0.126238
0.126179
0.126254
0.126171
0.126241
0.12621
0.126229
0.126194
0.1263
0.126219
0.126317
0.126414
0.126233
0.12585
0.126354
0.126466
0.125495
0.125745
0.126397
0.126523
0.126275
0.126468
0.126972
0.126246
0.125561
0.124511
0.126402
0.127731
0.126545
0.126537
0.126919
0.128374
0.127639
0.126033
0.12374
0.126847
0.127903
0.126622
0.129761
0.126083
0.125381
0.125469
0.130536
0.125823
0.127367
0.130157
0.128215
0.125969
0.123789
0.126828
0.127801
0.127623
0.121624
0.130308
0.125889
0.125201
0.124603
0.129002
0.125906
0.127216
0.126021
0.12292
0.124901
0.126617
0.127851
0.126461
0.125841
0.12575
0.126974
0.12612
0.124183
0.125028
0.125225
0.126362
0.125865
0.125632
0.125923
0.125621
0.124951
0.125203
0.125815
0.125532
0.125483
0.125536
0.125707
0.125423
0.125345
0.125429
0.125603
0.125511
0.12544
0.12543
0.125502
0.125441
0.125569
0.125557
0.125561
0.125561
0.12558
0.125581
0.125563
0.125631
0.125561
0.125522
0.12553
0.125537
0.125624
0.125625
0.12566
0.125624
0.125609
0.125763
0.125352
0.125267
0.125531
0.125965
0.1252
0.125065
0.125758
0.125955
0.12569
0.125846
0.126467
0.125631
0.124095
0.125079
0.125509
0.127297
0.126006
0.125577
0.126443
0.127739
0.127197
0.123983
0.125562
0.125463
0.127954
0.125887
0.129318
0.126133
0.122199
0.125983
0.129923
0.122303
0.127097
0.129572
0.127737
0.126276
0.123801
0.126621
0.127383
0.127101
0.124199
0.129852
0.125971
0.122426
0.125572
0.128794
0.125693
0.12693
0.125576
0.124545
0.122952
0.126417
0.127661
0.126301
0.125541
0.125504
0.126722
0.125776
0.124857
0.123595
0.125405
0.126039
0.125794
0.125372
0.125684
0.125417
0.124869
0.124826
0.125598
0.125375
0.125231
0.125367
0.125389
0.125184
0.125088
0.125173
0.125342
0.125279
0.125227
0.125198
0.125336
0.125192
0.125264
0.125261
0.125254
0.125263
0.125224
0.125225
0.125211
0.125303
0.125211
0.125251
0.125188
0.125235
0.125281
0.125274
0.125324
0.125229
0.125318
0.125479
0.125229
0.124984
0.125407
0.125682
0.124651
0.125052
0.125519
0.125646
0.125402
0.125748
0.126122
0.125429
0.124837
0.123754
0.125523
0.127006
0.125637
0.125675
0.126216
0.127529
0.12687
0.12523
0.122976
0.12601
0.127556
0.125654
0.12892
0.125462
0.124568
0.125018
0.129682
0.125032
0.12678
0.129454
0.127387
0.125131
0.123073
0.126446
0.126866
0.126929
0.121169
0.129382
0.125139
0.124528
0.124004
0.128661
0.125262
0.126332
0.125244
0.122337
0.124123
0.126021
0.127238
0.125769
0.124877
0.12496
0.126541
0.125321
0.123521
0.124345
0.124592
0.125772
0.125109
0.124849
0.125171
0.124833
0.124263
0.124479
0.125036
0.124787
0.124739
0.124742
0.124907
0.124627
0.124572
0.12466
0.124815
0.124679
0.124702
0.124668
0.124635
0.12466
0.12466
0.124761
0.124711
0.124808
0.124749
0.124732
0.124729
0.124749
0.12474
0.124768
0.124746
0.124723
0.12474
0.124742
0.124729
0.124787
0.12478
0.124953
0.124628
0.124412
0.124782
0.125114
0.124387
0.124252
0.124928
0.125108
0.124857
0.125036
0.125649
0.124958
0.123296
0.124379
0.124807
0.126547
0.125438
0.124894
0.125727
0.127106
0.126573
0.123235
0.124859
0.124758
0.126851
0.1251
0.128447
0.125552
0.121624
0.125436
0.129503
0.121615
0.12634
0.129143
0.127035
0.125558
0.123176
0.126024
0.12679
0.126798
0.123496
0.128813
0.125575
0.121865
0.124997
0.127948
0.125107
0.126026
0.1249
0.123679
0.122296
0.125746
0.126951
0.125368
0.124606
0.124643
0.126267
0.125003
0.124049
0.122866
0.124554
0.125509
0.124922
0.124557
0.124835
0.124689
0.124016
0.124168
0.124695
0.12451
0.124545
0.124445
0.124534
0.124446
0.12428
0.12445
0.124525
0.124368
0.124388
0.124298
0.12433
0.124297
0.124399
0.124439
0.12437
0.124391
0.124369
0.12446
0.124329
0.124438
0.12434
0.124409
0.124435
0.124339
0.124427
0.124343
0.124389
0.124501
0.124379
0.124589
0.124373
0.124153
0.124533
0.124778
0.123888
0.124115
0.12472
0.124924
0.124609
0.124856
0.1254
0.12462
0.123988
0.123107
0.124701
0.126313
0.124779
0.124899
0.125336
0.126924
0.126104
0.124522
0.122429
0.125227
0.126603
0.125201
0.128249
0.124696
0.123838
0.124148
0.129097
0.124221
0.12561
0.128598
0.126844
0.124338
0.122476
0.125777
0.126381
0.126099
0.120282
0.128721
0.124725
0.123786
0.12314
0.127442
0.124484
0.125861
0.124328
0.121547
0.123368
0.125536
0.126373
0.124935
0.124198
0.124242
0.125486
0.124568
0.122785
0.123494
0.123938
0.124905
0.124257
0.124046
0.124285
0.124027
0.12355
0.12365
0.124218
0.124014
0.1239
0.123953
0.12399
0.123838
0.12387
0.123836
0.124019
0.123903
0.123789
0.123798
0.123859
0.123804
0.123873
0.123932
0.12389
0.123846
0.123865
0.123845
0.123873
0.123975
0.123864
0.123863
0.123839
0.123884
0.123854
0.123944
0.123956
0.123896
0.123887
0.124027
0.123916
0.12361
0.123836
0.124258
0.123668
0.123543
0.124226
0.124414
0.124061
0.124281
0.124998
0.124236
0.122672
0.123535
0.124168
0.125838
0.124677
0.124094
0.124833
0.126379
0.126009
0.122654
0.124032
0.124079
0.12641
0.124249
0.128043
0.12481
0.120931
0.124752
0.128318
0.120813
0.12578
0.127829
0.126064
0.124777
0.12242
0.125577
0.126214
0.125791
0.12278
0.12835
0.124635
0.121275
0.124036
0.127298
0.124208
0.125396
0.12398
0.123154
0.121542
0.12533
0.126278
0.12492
0.123652
0.124147
0.125211
0.124262
0.123219
0.122107
0.123907
0.124627
0.124157
0.12383
0.124012
0.123872
0.12346
0.123425
0.123931
0.123898
0.1237
0.123715
0.123794
0.123564
0.123721
0.123567
0.12375
0.123599
0.123584
0.123687
0.123603
0.123677
0.123583
0.123635
0.123553
0.123637
0.123632
0.123576
0.12369
0.123692
0.123704
0.123565
0.123534
0.123713
0.123589
0.12374
0.123579
0.123599
0.123662
0.123929
0.123812
0.123475
0.123755
0.124078
0.123276
0.123395
0.12408
0.124181
0.123848
0.12408
0.124748
0.124021
0.12323
0.122405
0.124168
0.125332
0.124401
0.124051
0.124619
0.126168
0.125739
0.123763
0.121623
0.124733
0.125674
0.124259
0.127449
0.124333
0.123045
0.12373
0.128123
0.123585
0.125452
0.127816
0.125951
0.123512
0.121824
0.125104
0.125906
0.125357
0.11974
0.127787
0.124189
0.1231
0.122734
0.127202
0.124067
0.124897
0.124143
0.12088
0.122753
0.124824
0.126059
0.124089
0.123378
0.123436
0.124945
0.123936
0.122047
0.122802
0.123106
0.124316
0.123791
0.123437
0.123665
0.123454
0.122778
0.123178
0.123457
0.12331
0.123315
0.123162
0.123521
0.123157
0.123165
0.123202
0.123298
0.123146
0.123215
0.123107
0.123093
0.123056
0.123104
0.123104
0.123225
0.123169
0.123274
0.123237
0.123113
0.123264
0.123139
0.123159
0.123159
0.12317
0.123294
0.123242
0.123233
0.123241
0.123259
0.12343
0.123161
0.123116
0.123241
0.123671
0.122915
0.122779
0.123437
0.123725
0.123422
0.123663
0.124298
0.123491
0.122001
0.123064
0.123401
0.124912
0.123896
0.123528
0.124195
0.12583
0.125161
0.121995
0.123362
0.123574
0.125462
0.123712
0.127214
0.124055
0.120499
0.124136
0.127955
0.12026
0.125301
0.12759
0.125886
0.123992
0.121814
0.124886
0.125721
0.124699
0.122137
0.127412
0.124264
0.120848
0.123328
0.126887
0.123727
0.124575
0.123596
0.122352
0.12103
0.124529
0.125651
0.123957
0.123409
0.123238
0.124626
0.123793
0.122775
0.121602
0.123139
0.123958
0.123744
0.123206
0.123551
0.123186
0.122689
0.122821
0.123327
0.123261
0.123029
0.122978
0.123244
0.122917
0.122846
0.122883
0.123081
0.122837
0.122854
0.122879
0.122987
0.122849
0.122852
0.122888
0.123082
0.122884
0.123077
0.122941
0.122863
0.122975
0.122888
0.122907
0.122947
0.122912
0.122959
0.12308
0.123099
0.122893
0.123009
0.123188
0.122884
0.122979
0.123115
0.123369
0.122505
0.122678
0.123207
0.123442
0.123234
0.123609
0.123863
0.123272
0.12275
0.121795
0.123371
0.124784
0.123302
0.123743
0.124035
0.125573
0.124665
0.122999
0.121208
0.123918
0.125221
0.123525
0.126916
0.123167
0.122491
0.123195
0.12722
0.122792
0.124736
0.12739
0.125537
0.122888
0.121213
0.124583
0.125411
0.124647
0.119515
0.127174
0.123471
0.122609
0.121896
0.126314
0.123235
0.12446
0.123178
0.120518
0.122105
0.124278
0.125326
0.1241
0.122699
0.123077
0.124482
0.123664
0.121643
0.122318
0.122713
0.124028
0.123222
0.122846
0.123141
0.122987
0.122363
0.122594
0.122968
0.12291
0.122573
0.1227
0.12278
0.122632
0.122456
0.122538
0.122784
0.12257
0.122523
0.122637
0.122603
0.122625
0.122676
0.122687
0.122589
0.122709
0.122693
0.122842
0.122682
0.122656
0.122675
0.122551
0.122598
0.122704
0.122679
0.122855
0.122635
0.122758
0.122552
0.122794
0.122587
0.122474
0.122821
0.123192
0.122491
0.122314
0.123199
0.123172
0.123061
0.123057
0.123887
0.123179
0.121449
0.122446
0.123024
0.124501
0.123291
0.122782
0.12392
0.125304
0.124437
0.121373
0.122735
0.123151
0.124984
0.123
0.126479
0.123675
0.119924
0.12376
0.127029
0.119934
0.124505
0.127073
0.125295
0.12344
0.121281
0.124091
0.124981
0.124531
0.121603
0.126541
0.123763
0.120379
0.122977
0.126068
0.123047
0.124288
0.123076
0.121821
0.12052
0.12407
0.125171
0.123407
0.122514
0.122707
0.124338
0.123264
0.122139
0.121191
0.122441
0.123912
0.123069
0.122635
0.123022
0.122949
0.122096
0.122466
0.122984
0.122681
0.122371
0.122615
0.122588
0.122529
0.122337
0.12243
0.12265
0.122551
0.122491
0.122312
0.122405
0.122338
0.122569
0.122362
0.122505
0.122498
0.122369
0.122695
0.122419
0.122517
0.122342
0.122404
0.122383
0.122383
0.12249
0.12251
0.122559
0.122681
0.12246
0.122614
0.122501
0.122229
0.122676
0.123092
0.121983
0.122379
0.123003
0.123137
0.122801
0.12295
0.123718
0.122683
0.122137
0.121473
0.122582
0.124209
0.122901
0.12282
0.123248
0.125172
0.124242
0.122674
0.120559
0.123562
0.12482
0.123219
0.126482
0.1226
0.121974
0.12266
0.126936
0.122267
0.124276
0.126897
0.125361
0.122331
0.120733
0.124015
0.124955
0.12391
0.119205
0.126564
0.123313
0.122192
0.121357
0.125869
0.122969
0.123754
0.123023
0.119967
0.121621
0.123993
0.124825
0.123147
0.122528
0.122367
0.123901
0.12289
0.121293
0.121772
0.122085
0.123316
0.122842
0.122399
0.122846
0.122288
0.121674
0.122089
0.122788
0.122252
0.122317
0.122223
0.12243
0.122094
0.122224
0.122174
0.12226
0.122079
0.122175
0.122036
0.122427
0.122016
0.122055
0.122206
0.122308
0.122186
0.122069
0.122143
0.122342
0.12216
0.122207
0.122184
0.122061
0.122254
0.122079
0.122139
0.122326
0.122144
0.122281
0.122534
0.122259
0.121885
0.122363
0.122583
0.121944
0.121867
0.122259
0.122874
0.12251
0.122833
0.123111
0.122529
0.121184
0.121917
0.122357
0.123841
0.122848
0.12237
0.123164
0.124735
0.124277
0.120925
0.122351
0.122603
0.124574
0.122576
0.126132
0.122797
0.119578
0.123258
0.126342
0.119323
0.124034
0.126604
0.124819
0.122895
0.120738
0.124054
0.12485
0.123556
0.12122
0.126308
0.123151
0.120127
0.122333
0.125418
0.122909
0.123588
0.122619
0.121478
0.120149
0.123707
0.124685
0.123472
0.121992
0.122499
0.123705
0.122603
0.12171
0.120716
0.122408
0.12341
0.122547
0.122342
0.122479
0.122206
0.121586
0.121818
0.122365
0.122145
0.122239
0.122174
0.12212
0.121966
0.121869
0.121975
0.122072
0.121933
0.121928
0.12204
0.122184
0.122013
0.12201
0.122159
0.121962
0.122044
0.122067
0.121872
0.122253
0.121981
0.122144
0.121923
0.121915
0.122172
0.121962
0.121948
0.121906
0.121957
0.121956
0.122471
0.121958
0.12186
0.122201
0.122491
0.121893
0.121858
0.122386
0.122675
0.12238
0.122449
0.123078
0.122497
0.121664
0.120904
0.122539
0.123796
0.122681
0.122437
0.123341
0.124646
0.123746
0.122032
0.120313
0.123112
0.124289
0.122637
0.12573
0.122607
0.121492
0.122529
0.126253
0.121878
0.123523
0.126494
0.124558
0.12186
0.120344
0.123758
0.12428
0.123657
0.118957
0.125879
0.122728
0.121741
0.12125
0.125338
0.122618
0.123344
0.122646
0.119687
0.121226
0.123438
0.124579
0.122676
0.12186
0.121976
0.123624
0.12259
0.120741
0.121557
0.121673
0.123327
0.122482
0.122043
0.122471
0.122136
0.121374
0.121429
0.121869
0.121999
0.121752
0.122011
0.121941
0.121851
0.121811
0.121793
0.121784
0.121839
0.121888
0.121663
0.121721
0.121685
0.121876
0.121724
0.121635
0.121662
0.121816
0.12177
0.121799
0.121695
0.12169
0.121847
0.121785
0.121722
0.121851
0.121944
0.121647
0.121822
0.12181
0.122068
0.121851
0.121676
0.121867
0.122465
0.121615
0.12167
0.122465
0.122479
0.122073
0.122292
0.123012
0.12196
0.120689
0.121668
0.12175
0.123702
0.122489
0.122065
0.122684
0.124639
0.123742
0.120712
0.121768
0.122325
0.12421
0.122295
0.125722
0.122423
0.119344
0.122809
0.126225
0.11911
0.123748
0.126279
0.124488
0.122454
0.120436
0.123545
0.124281
0.123455
0.120871
0.125754
0.122821
0.119953
0.121905
0.125207
0.122546
0.123007
0.12257
0.120976
0.119795
0.12337
0.124307
0.122578
0.121966
0.121833
0.123236
0.122608
0.121368
0.120394
0.121485
0.122792
0.122632
0.121874
0.122408
0.121635
0.121489
0.121334
0.121769
0.121899
0.12162
0.121733
0.121864
0.12156
0.121783
0.121588
0.121694
0.121489
0.121712
0.12158
0.121573
0.121592
0.121544
0.121568
0.121526
0.121543
0.12159
0.121707
0.121589
0.121515
0.121576
0.121767
0.121535
0.121591
0.121579
0.121904
0.121594
0.121567
0.121893
0.122
0.121945
0.121386
0.121735
0.122102
0.121369
0.121479
0.122032
0.122256
0.122018
0.122372
0.122622
0.121774
0.121459
0.120582
0.121868
0.123295
0.122218
0.12205
0.12254
0.124294
0.123852
0.121607
0.120006
0.122688
0.123922
0.122184
0.125391
0.12179
0.121122
0.122048
0.125569
0.121381
0.12332
0.126055
0.124327
0.12149
0.120001
0.123662
0.124415
0.123104
0.118784
0.125489
0.122505
0.121423
0.12065
0.124688
0.122542
0.123034
0.122116
0.11944
0.120803
0.123141
0.12414
0.122916
0.121452
0.121873
0.123148
0.122129
0.120549
0.121092
0.121286
0.122577
0.121974
0.121838
0.121905
0.121583
0.121028
0.121465
0.121925
0.121567
0.121655
0.121546
0.121735
0.121355
0.121298
0.121526
0.121595
0.12141
0.121324
0.121452
0.121313
0.121494
0.121438
0.121676
0.121513
0.121583
0.121579
0.121565
0.121488
0.121582
0.121525
0.121383
0.121489
0.121606
0.12156
0.121449
0.121531
0.121541
0.121403
0.121936
0.121486
0.121214
0.121556
0.121963
0.12154
0.121043
0.121744
0.12212
0.122019
0.121934
0.122636
0.121976
0.12033
0.121166
0.121866
0.123182
0.122217
0.12167
0.122796
0.12425
0.123507
0.120166
0.121447
0.122089
0.123655
0.121849
0.125069
0.122387
0.119011
0.122572
0.125511
0.118965
0.123032
0.125876
0.124102
0.122136
0.120138
0.123578
0.123703
0.122985
0.12046
0.125131
0.122773
0.119461
0.121671
0.124592
0.122325
0.12273
0.122094
0.12058
0.119489
0.123
0.124097
0.122229
0.121322
0.121582
0.123008
0.122019
0.120902
0.120192
0.121372
0.12253
0.121842
0.121607
0.121952
0.121767
0.121009
0.121064
0.121867
0.121551
0.121274
0.121551
0.121637
0.121404
0.121261
0.121575
0.121274
0.12151
0.12131
0.121172
0.121231
0.12118
0.121484
0.121369
0.12153
0.121264
0.121521
0.121248
0.121491
0.121507
0.121217
0.121351
0.121498
0.121288
0.121594
0.121417
0.121305
0.12146
0.121288
0.121571
0.121366
0.121305
0.121297
0.121857
0.121065
0.120988
0.121555
0.121976
0.121729
0.121873
0.122584
0.121346
0.12086
0.120293
0.121378
0.123211
0.121882
0.121915
0.122211
0.124204
0.123034
0.121389
0.119604
0.122479
0.123481
0.122036
0.125115
0.121405
0.120851
0.121719
0.125467
0.121024
0.122943
0.125773
0.124061
0.121173
0.119835
0.123284
0.1235
0.123019
0.118582
0.124698
0.122479
0.121112
0.120437
0.124549
0.122314
0.122368
0.122195
0.119044
0.120472
0.122924
0.123848
0.122128
0.121404
0.121307
0.122673
0.122117
0.120177
0.120779
0.121213
0.122484
0.122165
0.12144
0.121963
0.121141
0.120914
0.121018
0.121379
0.121549
0.121184
0.121271
0.121398
0.12109
0.121317
0.12117
0.121277
0.121037
0.121337
0.121134
0.121281
0.121184
0.121141
0.121455
0.12108
0.1211
0.121102
0.121215
0.121515
0.121167
0.121214
0.121363
0.12113
0.121245
0.121214
0.121407
0.121226
0.121139
0.121401
0.121598
0.121473
0.120829
0.121205
0.121456
0.12077
0.120861
0.121246
0.121659
0.121603
0.121927
0.122232
0.12138
0.119972
0.120815
0.121185
0.122862
0.121815
0.121437
0.122184
0.123733
0.122835
0.119878
0.121216
0.121712
0.12327
0.121532
0.124849
0.121632
0.118815
0.122247
0.124885
0.118517
0.122733
0.125654
0.123841
0.121798
0.119778
0.123301
0.12365
0.12259
0.120315
0.124549
0.122343
0.119406
0.121347
0.124132
0.122335
0.122436
0.121777
0.120355
0.11919
0.122701
0.123746
0.122451
0.120954
0.121515
0.122645
0.121643
0.120769
0.119833
0.121011
0.1224
0.12181
0.121479
0.121499
0.121121
0.120708
0.121026
0.121411
0.121224
0.121257
0.121214
0.12125
0.121059
0.120918
0.12112
0.121306
0.12097
0.121087
0.121213
0.120927
0.121274
0.121108
0.121436
0.121008
0.12117
0.121071
0.121268
0.121127
0.121163
0.121266
0.121022
0.121039
0.121255
0.121149
0.12105
0.121224
0.121074
0.120971
0.121578
0.121109
0.12072
0.121228
0.121588
0.120526
0.120984
0.121264
0.121513
0.121566
0.121532
0.122234
0.12153
0.120681
0.119823
0.121436
0.122884
0.121682
0.121397
0.12237
0.123537
0.122773
0.120895
0.119304
0.122169
0.123023
0.121598
0.124567
0.121532
0.120476
0.121585
0.124934
0.120664
0.122322
0.125315
0.123676
0.120788
0.119524
0.12314
0.12316
0.122407
0.118573
0.124494
0.122068
0.120724
0.120313
0.12395
0.122171
0.122217
0.12187
0.118773
0.120161
0.122507
0.123682
0.121814
0.120865
0.121148
0.122455
0.121628
0.11987
0.120575
0.120765
0.122115
0.121428
0.121269
0.121579
0.121314
0.120486
0.120676
0.121395
0.121139
0.120901
0.121188
0.121256
0.120994
0.120907
0.121144
0.120882
0.121096
0.121101
0.120834
0.120851
0.120796
0.121071
0.12096
0.121089
0.120977
0.121062
0.120874
0.12076
0.12097
0.120849
0.120937
0.121066
0.120964
0.121122
0.120975
0.120886
0.121023
0.120877
0.121246
0.120742
0.120663
0.120803
0.121565
0.120715
0.120514
0.121347
0.121597
0.121361