/*--------------------------------*- C++ -*----------------------------------*\
| =========                 |                                                 |
| \\      /  F ield         | OpenFOAM: The Open Source CFD Toolbox           |
|  \\    /   O peration     | Version:  2312                                  |
|   \\  /    A nd           | Website:  www.openfoam.com                      |
|    \\/     M anipulation  |                                                 |
\*---------------------------------------------------------------------------*/
FoamFile
{
    version     2.0;
    format      ascii;
    arch        "LSB;label=32;scalar=64";
    class       surfaceScalarField;
    location    "2";
    object      phi;
}
// * * * * * * * * * * * * * * * * * * * * * * * * * * * * * * * * * * * * * //

dimensions      [0 3 -1 0 0 0 0];

oriented        oriented;

internalField   nonuniform List<scalar> 
99400
(
3.9906e-06
8.48214e-05
-7.12331e-06
0.000104169
-1.26235e-05
0.000103052
-2.67818e-05
0.000116425
-2.96651e-05
0.000110073
-5.29277e-05
0.000135615
-4.29772e-05
0.000107823
-6.95606e-06
8.74212e-05
1.63671e-05
0.000106055
-6.31642e-06
0.000158268
-2.7609e-05
0.000163349
-4.89673e-05
0.000170299
-3.80832e-05
0.00014525
1.42046e-05
0.000111363
6.7174e-05
0.000118555
8.79672e-05
0.000158984
5.6887e-05
0.000219499
1.59258e-05
0.0002384
-7.5812e-06
0.000230321
-3.90525e-05
0.000248246
-7.41378e-05
0.000262418
-6.07432e-05
0.000224925
-8.83504e-06
0.000197885
5.47337e-05
0.000198244
8.76474e-05
0.000241492
7.01196e-05
0.000305113
3.68347e-05
0.000334565
1.27853e-05
0.000339734
-2.33968e-05
0.000367047
-3.82987e-05
0.000361826
1.41081e-05
0.000311303
5.40674e-05
0.000341236
3.43018e-05
0.000419158
1.7091e-05
0.000435806
1.29558e-05
0.000442945
1.39077e-06
0.00047146
-1.81461e-05
0.000501519
-1.94855e-05
0.000506596
1.13709e-05
0.00049874
1.27873e-05
0.000553635
-2.24761e-06
0.000596717
-5.39358e-06
0.000612881
4.0508e-07
0.000633277
4.65782e-06
0.000665575
1.13077e-06
0.000705567
5.36028e-07
0.000736428
3.24358e-08
0.000771739
-2.76948e-07
0.000808652
2.95142e-07
0.000846663
3.76288e-07
0.000887917
8.96204e-07
0.000887478
1.01723e-06
0.000847113
1.11729e-06
0.000808243
8.78746e-07
0.000771475
3.10854e-07
0.000736399
3.04183e-06
0.000699324
5.84288e-06
0.000667026
3.94438e-06
0.000640973
3.84143e-06
0.000609845
-1.87882e-06
0.000587449
-4.30963e-06
0.000557475
-4.33938e-06
0.000529592
-1.16314e-05
0.000512525
-3.35299e-05
0.000503849
-3.78918e-05
0.000464304
6.46949e-06
0.000394534
-6.85791e-06
0.00043193
-3.9814e-05
0.000432334
4.09503e-06
0.0003373
5.16436e-05
0.000316158
3.54558e-05
0.000363119
-1.28116e-06
0.00036761
-2.54272e-05
0.00033982
-5.80464e-05
0.000333862
-8.65227e-05
0.000316039
-6.359e-05
0.000251475
9.63402e-07
0.000197259
6.25548e-05
0.000188201
8.95354e-05
0.000211341
6.01658e-05
0.000256727
2.69752e-05
0.000250003
7.26736e-06
0.0002265
-2.95674e-05
0.000234233
-6.57033e-05
0.000224542
-5.95013e-05
0.000173571
-3.1533e-05
0.000143554
1.44335e-05
0.000117693
4.71206e-05
0.000123448
2.74545e-05
0.000168624
7.90272e-06
0.000161611
-2.05162e-05
0.000163993
-2.35856e-05
0.000132453
2.55102e-05
7.43467e-05
6.82201e-05
7.5065e-05
6.49341e-05
0.000115656
5.51529e-05
0.000116986
3.76618e-05
0.000119759
2.33826e-05
0.000111838
1.14791e-05
0.000104976
0.000100252
2.29393e-05
6.20003e-05
-1.72469e-05
0.000144491
-4.86361e-05
0.000134586
-3.56144e-05
0.00010355
-3.52268e-05
0.00010983
-7.49518e-05
0.000175486
-5.31382e-05
8.61456e-05
1.31731e-06
3.31126e-05
4.46106e-05
6.29178e-05
2.29788e-05
0.000180078
-3.91562e-05
0.000225682
-8.14181e-05
0.000212765
-5.77702e-05
0.000121796
8.75406e-06
4.50323e-05
6.13989e-05
6.61141e-05
9.56722e-05
0.000124927
9.83291e-05
0.000217074
4.91592e-05
0.000287824
-2.19392e-05
0.000301718
-8.03075e-05
0.000306935
-0.000104459
0.000286892
-7.48711e-05
0.000195641
-1.23629e-05
0.000135683
4.02037e-05
0.000145994
8.59849e-05
0.000196051
0.000104906
0.000286561
6.29166e-05
0.000376997
-9.29124e-06
0.000412458
-7.14422e-05
0.000429739
-5.87701e-05
0.000349725
7.72464e-06
0.000245328
5.02793e-05
0.000299245
1.59654e-05
0.000454137
-1.54655e-05
0.000467968
9.27125e-06
0.000418977
5.46375e-06
0.000476078
-2.89297e-05
0.000536759
-2.4891e-05
0.000503442
1.02832e-05
0.000464427
1.3442e-05
0.000551447
-8.6169e-06
0.000619802
-1.13844e-05
0.000616724
-2.23312e-06
0.000625236
1.41331e-06
0.000663102
-7.59753e-07
0.000708978
-1.08703e-06
0.000738053
-2.18503e-07
0.000772231
-7.29584e-08
0.000809932
2.71145e-07
0.000847813
4.15098e-07
0.00088934
9.49054e-07
0.00088851
1.02954e-06
0.000848527
1.3237e-06
0.000809375
1.86632e-06
0.000772292
2.04294e-06
0.00073752
3.48306e-06
0.000699116
4.54987e-06
0.000667134
5.95364e-06
0.000640697
7.03056e-06
0.000609843
-4.72184e-08
0.000595553
4.79075e-07
0.000557927
1.91355e-05
0.000511865
8.34122e-06
0.000524211
-3.87629e-05
0.000551791
-2.87783e-05
0.0004551
3.03916e-05
0.00033602
3.253e-06
0.000459791
-3.91307e-05
0.000475361
5.65567e-06
0.000293062
6.84313e-05
0.000253907
8.22082e-05
0.000349908
2.60701e-05
0.000424291
-4.13677e-05
0.000407775
-8.65355e-05
0.000379484
-8.91832e-05
0.000319068
-5.33928e-05
0.000216026
2.45033e-06
0.000141732
6.57238e-05
0.000125232
0.000109818
0.000167546
0.000104684
0.000262171
5.46478e-05
0.000300359
-1.74845e-05
0.000298934
-7.44729e-05
0.000291486
-8.73469e-05
0.000237652
-6.18042e-05
0.000148248
-2.15562e-05
0.000103516
2.94172e-05
6.69151e-05
7.11797e-05
8.18744e-05
6.41089e-05
0.00017589
3.97801e-07
0.000225521
-5.80419e-05
0.000222615
-4.53762e-05
0.000119946
1.31083e-05
1.60044e-05
6.25491e-05
2.57631e-05
7.68048e-05
0.000101538
8.84179e-05
0.000105509
7.64154e-05
0.000131904
4.7362e-05
0.000141029
1.90178e-05
0.000133451
0.000119394
-2.98712e-05
9.19281e-05
-3.10396e-05
0.000145732
-3.18653e-05
0.000135483
-3.12822e-05
0.000103042
1.25971e-05
6.60227e-05
2.03179e-05
0.000167845
-8.88033e-06
0.000115416
-6.48467e-06
3.07934e-05
3.20902e-06
5.33068e-05
-6.33763e-06
0.000189718
-2.98509e-05
0.000249297
-3.77049e-05
0.000220722
-1.13997e-05
9.55925e-05
1.48934e-05
1.88425e-05
3.41959e-05
4.6921e-05
2.38536e-05
0.000135387
1.47365e-05
0.000226316
4.12272e-06
0.000298562
-2.13187e-05
0.000327337
-4.98173e-05
0.000335602
-5.66802e-05
0.000293912
-3.60124e-05
0.000175129
-9.94576e-06
0.000109776
1.9544e-05
0.000116673
1.98052e-05
0.000195967
1.18612e-05
0.000294696
5.48151e-06
0.000383615
-6.45835e-06
0.000424695
-1.63478e-05
0.000439947
-2.05184e-05
0.000354158
-8.35145e-06
0.000233396
5.4874e-06
0.000285655
9.83048e-06
0.000450125
1.1428e-05
0.000466711
-9.99994e-06
0.000440715
-1.66988e-05
0.000483128
-7.75448e-06
0.000528201
-6.60334e-06
0.000502651
-3.15672e-06
0.000461338
-3.64137e-06
0.000552325
-4.16786e-06
0.000620778
-4.87275e-06
0.000617867
-1.65539e-06
0.000622469
1.51673e-06
0.000660403
5.29002e-08
0.00071095
2.36107e-07
0.000738393
1.00389e-08
0.000773008
-3.79324e-07
0.000810899
1.99708e-07
0.000847837
3.43382e-07
0.00088983
9.21675e-07
0.000888565
1.04831e-06
0.000849005
1.33136e-06
0.000809668
1.06754e-06
0.000773106
4.62807e-07
0.000738651
3.57971e-06
0.000696497
6.59768e-06
0.000664592
5.44844e-06
0.000642305
5.16769e-06
0.000610559
8.67702e-06
0.000592472
7.19838e-06
0.000559805
-7.23178e-06
0.000526668
-6.04952e-06
0.000523399
3.23564e-06
0.00054291
-6.42245e-06
0.000465095
3.64813e-06
0.000326238
4.49218e-06
0.000459283
-2.43009e-06
0.000482633
2.01467e-05
0.000270734
2.77226e-05
0.000246567
2.21925e-05
0.0003557
1.53879e-05
0.000431412
3.36956e-06
0.000420099
-7.63763e-06
0.000390746
-1.88735e-05
0.000330494
-2.0161e-05
0.000217493
9.81354e-06
0.000111925
4.2011e-05
9.31941e-05
6.52826e-05
0.000144429
6.06358e-05
0.000266975
4.04018e-05
0.000320752
1.46502e-05
0.000324867
-9.53693e-07
0.000307222
-9.24885e-06
0.000246067
-2.3369e-05
0.000162487
-1.4233e-05
9.44908e-05
9.13674e-06
4.36492e-05
2.87053e-05
6.24057e-05
3.56944e-05
0.000169004
1.75353e-05
0.000243785
1.07143e-06
0.000239169
-9.78761e-06
0.000130889
-2.64385e-07
6.55705e-06
-1.23642e-05
3.79381e-05
-3.7447e-05
0.000126697
2.13609e-05
4.67761e-05
4.07302e-05
0.000112612
3.52802e-05
0.000146557
1.65984e-05
0.000152208
0.000136072
-3.00831e-05
0.000122072
4.47441e-06
0.000111242
8.34028e-06
0.000131681
-1.96444e-05
0.000131095
4.32066e-06
4.21277e-05
2.42459e-05
0.000148001
5.56769e-06
0.000134174
1.09793e-05
2.546e-05
1.01604e-05
5.42087e-05
-5.84822e-06
0.000205818
-1.89416e-05
0.000262491
-3.56195e-05
0.000237505
-2.51666e-05
8.52432e-05
7.0165e-06
-1.32359e-05
3.80704e-05
1.59764e-05
3.83256e-05
0.000135251
2.74294e-06
0.000262027
-1.39252e-05
0.000315367
-1.83313e-05
0.000331914
-3.98147e-05
0.000357254
-6.2438e-05
0.000316693
-5.15889e-05
0.000164439
-1.66967e-05
7.50475e-05
1.86603e-05
8.14847e-05
2.85185e-05
0.00018629
1.57586e-05
0.000307666
2.03485e-05
0.00037928
3.77201e-06
0.000441519
-4.12649e-05
0.00048526
-4.46542e-05
0.000357793
-9.63778e-06
0.000198618
1.0347e-05
0.000265924
1.60413e-05
0.000444725
2.0832e-05
0.000462222
-6.80631e-07
0.000462534
-1.81041e-05
0.000500876
-1.34755e-05
0.000523919
-1.01272e-05
0.000499656
5.17127e-06
0.000446399
6.71537e-06
0.000551169
-5.79242e-06
0.000633698
-6.80639e-06
0.00061931
-1.80985e-06
0.000617918
1.53746e-06
0.000657524
-2.67054e-07
0.000713247
-9.43897e-07
0.000739586
-3.68273e-07
0.000772974
-9.67283e-08
0.000811194
1.61166e-07
0.000848174
1.29616e-07
0.000890484
6.96842e-07
0.00088862
1.08096e-06
0.000849215
1.52092e-06
0.000809794
1.91784e-06
0.00077325
2.02376e-06
0.000739061
3.74226e-06
0.000695271
4.93807e-06
0.000663865
3.64502e-06
0.000644047
4.3012e-06
0.00061033
3.4701e-06
0.000593713
1.82273e-06
0.000561843
-1.13202e-06
0.000529992
2.51379e-06
0.000520108
-9.25608e-06
0.000555033
-1.68237e-05
0.000472982
1.25864e-05
0.000297119
4.8797e-06
0.000467291
-9.71423e-06
0.000497532
1.92256e-05
0.000242047
4.91745e-05
0.000216858
4.51701e-05
0.000359949
7.37988e-06
0.000469475
-1.29012e-05
0.000440631
-6.37514e-06
0.000384475
-2.28616e-05
0.000347195
-2.09682e-05
0.000215781
1.39922e-05
7.71355e-05
5.00203e-05
5.7327e-05
6.68738e-05
0.000127733
4.75775e-05
0.000286429
3.51325e-05
0.000333363
2.64662e-05
0.000333709
1.75822e-05
0.000316251
-1.8926e-05
0.000282702
-3.08408e-05
0.000174522
-8.31712e-06
7.20794e-05
1.62717e-05
1.91649e-05
3.80754e-05
4.07039e-05
3.559e-05
0.000171594
2.71591e-05
0.00025232
1.55418e-05
0.000250878
-1.19764e-05
0.00015849
7.95489e-06
-1.32973e-05
2.31839e-05
2.27857e-05
-1.74491e-06
0.000151702
2.23895e-05
2.27136e-05
4.24155e-05
9.26567e-05
3.11057e-05
0.000157937
1.31225e-05
0.00017026
0.000149267
5.49398e-06
0.000116642
1.16898e-05
0.000105117
1.66171e-05
0.000126819
2.17295e-05
0.00012605
2.30411e-05
4.08848e-05
2.77563e-05
0.000143367
2.93353e-05
0.000132677
1.92295e-05
3.56459e-05
-1.98222e-07
7.37189e-05
-1.33061e-05
0.000219017
-2.18046e-05
0.000271091
-2.4758e-05
0.000240563
-9.34864e-06
6.99361e-05
3.58627e-06
-2.60691e-05
7.9319e-06
1.17403e-05
-9.78142e-06
0.000153082
-1.95126e-05
0.000271884
-1.99161e-05
0.000315915
-1.8937e-05
0.000331091
-3.21583e-05
0.000370642
-4.2656e-05
0.000327346
-3.2367e-05
0.000154308
-1.60546e-05
5.88949e-05
-9.6162e-06
7.52162e-05
-1.87416e-05
0.000195595
-1.8751e-05
0.00030788
-5.12142e-06
0.000365881
-6.72614e-06
0.000443351
-5.009e-06
0.00048378
-4.30155e-06
0.00035732
-1.90054e-05
0.000213558
-1.27539e-05
0.000259923
-1.1999e-05
0.000444242
-1.2187e-05
0.000462693
-1.1089e-05
0.000461736
-7.10155e-06
0.000497202
-7.1678e-06
0.000524316
-5.28157e-06
0.000498115
-9.61702e-06
0.000451086
-9.74703e-06
0.000551679
-6.41641e-06
0.000630766
-5.33178e-06
0.000618643
-2.28019e-06
0.000615302
-1.6955e-06
0.000657395
-2.01077e-06
0.000714043
-2.36548e-07
0.000738314
2.05575e-07
0.00077306
-4.17627e-07
0.000812369
4.09873e-08
0.000848295
2.99794e-07
0.000890831
9.59141e-07
0.000888569
1.07526e-06
0.000849677
1.49886e-06
0.000809924
1.59384e-06
0.000773682
1.2297e-06
0.000739929
3.33772e-06
0.000693642
6.0713e-06
0.00066159
6.90263e-06
0.000643654
6.31616e-06
0.000611334
9.00401e-06
0.000591424
1.09094e-05
0.000560318
5.57074e-06
0.000535691
5.85211e-06
0.00052017
1.19137e-05
0.000549303
9.60031e-06
0.000475609
8.03945e-06
0.000298968
1.22722e-05
0.000463343
1.29391e-05
0.000497142
2.38017e-05
0.000231435
1.10061e-05
0.000229891
1.22046e-05
0.000358986
1.45682e-05
0.000467349
1.02993e-05
0.000445126
2.51716e-05
0.000369832
2.81607e-05
0.000344418
1.6303e-05
0.000227822
1.81038e-05
7.55018e-05
3.40263e-05
4.15661e-05
4.97092e-05
0.000112205
4.45413e-05
0.000291752
2.87341e-05
0.000349333
2.86919e-05
0.000333912
2.91974e-05
0.000315899
2.80076e-05
0.000284024
1.60995e-05
0.000186548
2.95039e-06
8.53395e-05
1.40004e-05
8.22008e-06
2.7789e-05
2.70153e-05
3.50779e-05
0.000164407
3.01938e-05
0.000257307
2.24585e-05
0.000258707
1.49982e-05
0.000166031
3.48297e-06
-1.70709e-06
4.46236e-06
2.18816e-05
1.28378e-06
0.000154955
1.16102e-05
1.24569e-05
1.33917e-05
9.09442e-05
1.33905e-05
0.000158006
4.50169e-06
0.000179212
0.000153835
2.27132e-05
9.39978e-05
3.21427e-05
9.57618e-05
3.84147e-05
0.000120618
2.80315e-05
0.000136506
2.23953e-05
4.65919e-05
2.02608e-05
0.000145583
1.64606e-05
0.000136563
1.74938e-05
3.46928e-05
5.04837e-06
8.62487e-05
-1.0609e-05
0.000234767
-1.92709e-05
0.000279856
-2.23177e-05
0.000243715
-1.36108e-05
6.13325e-05
-1.78736e-06
-3.77883e-05
3.97459e-06
6.08663e-06
-1.5259e-05
0.000172438
-3.44112e-05
0.000291179
-2.11238e-05
0.000302787
-1.41146e-05
0.000324239
-2.02438e-05
0.000376942
-3.557e-05
0.000342838
-3.72473e-05
0.000156145
-1.83954e-05
4.02063e-05
-2.42681e-06
5.94162e-05
-8.3191e-06
0.000201673
-1.00519e-05
0.000309816
1.86752e-06
0.000354179
-6.37926e-06
0.000451821
-5.55319e-06
0.000483191
-1.31568e-05
0.000365162
-1.19458e-05
0.000212588
2.4594e-06
0.000245771
1.3767e-05
0.000433211
1.22316e-05
0.000464518
-1.50794e-05
0.000489353
-1.72778e-05
0.000499721
-6.13061e-06
0.000513504
-7.10096e-06
0.000499436
4.89651e-08
0.000444295
2.43007e-07
0.00055187
-3.39449e-06
0.00063481
-2.42962e-06
0.000618103
-7.39196e-07
0.000614053
5.81078e-07
0.00065654
-5.33585e-07
0.000715645
-4.68317e-07
0.000738762
-2.94905e-07
0.000773422
-3.31954e-07
0.000812969
-1.29759e-08
0.000848564
1.39362e-07
0.000891298
7.72365e-07
0.000888552
1.08425e-06
0.000849956
1.50399e-06
0.000810066
1.94993e-06
0.000773774
2.421e-06
0.000739969
3.37954e-06
0.000693172
4.50326e-06
0.000660931
3.00079e-06
0.000645601
2.84653e-06
0.000611913
6.79525e-06
0.00058788
6.66642e-06
0.000560834
-9.56939e-06
0.000552294
-8.18632e-06
0.000519138
-2.47751e-07
0.000541699
-4.37271e-06
0.000480053
9.54774e-06
0.000285341
9.30038e-06
0.000463879
4.6966e-06
0.000502025
2.13724e-05
0.000215012
1.8549e-05
0.000232956
5.40451e-06
0.000372369
1.18635e-05
0.000461126
8.17891e-06
0.000449034
1.97785e-05
0.000358448
1.36698e-05
0.000350735
3.44994e-06
0.000238227
1.97165e-05
5.94063e-05
3.61089e-05
2.53339e-05
4.57676e-05
0.000102705
3.14899e-05
0.000306191
1.53422e-05
0.000365648
2.16654e-05
0.000327747
4.33806e-05
0.000294345
3.81203e-05
0.000289433
1.18183e-05
0.000212977
6.85373e-06
9.04181e-05
1.54951e-05
-3.17622e-07
2.68179e-05
1.57945e-05
2.65882e-05
0.00016474
3.17756e-05
0.000252222
3.11035e-05
0.000259476
1.20774e-05
0.000185144
4.66664e-06
5.78124e-06
1.02872e-05
1.63353e-05
5.18526e-06
0.000160134
5.319e-06
1.23938e-05
-5.28334e-06
0.000101618
-6.90273e-06
0.000159691
-1.84255e-06
0.000174216
0.000152056
4.31456e-05
5.09179e-05
4.93135e-05
8.96619e-05
4.20865e-05
0.000127917
2.91377e-05
0.000149528
2.54802e-05
5.032e-05
1.13233e-05
0.000159822
1.81585e-05
0.000129815
2.62744e-05
2.66574e-05
-7.10181e-08
0.000112676
-1.1485e-05
0.000246273
-1.46122e-05
0.000283084
-1.67993e-05
0.000246008
-9.94443e-06
5.45821e-05
-8.76282e-06
-3.88682e-05
-2.61398e-05
2.35744e-05
-3.85419e-05
0.000184962
-3.38493e-05
0.000286635
-2.22873e-05
0.000291384
-1.71509e-05
0.000319256
-1.89506e-05
0.000378914
-1.99895e-05
0.000344047
-2.43688e-05
0.000160685
-1.90852e-05
3.50838e-05
-2.11893e-05
6.16924e-05
-3.59031e-05
0.00021657
-3.56122e-05
0.000309725
-2.37208e-05
0.000342499
-1.76448e-05
0.000445965
-1.17525e-05
0.000477532
-8.64286e-06
0.000362291
-1.64503e-05
0.000220635
-1.95104e-05
0.000249087
-2.31294e-05
0.000437104
-2.01461e-05
0.000461823
-9.52608e-06
0.000479034
-6.58039e-06
0.000497091
-1.02613e-05
0.000517517
-5.86962e-06
0.000495392
-1.11929e-05
0.000449977
-1.06687e-05
0.000551728
-7.37104e-06
0.000631916
-5.47831e-06
0.000616632
-3.2607e-06
0.000612274
-3.7843e-06
0.000657525
-3.25966e-06
0.000715604
-7.85433e-07
0.000736795
1.13606e-07
0.000773054
-3.58031e-07
0.000813999
-4.6051e-08
0.000848836
2.64471e-07
0.000891601
9.05428e-07
0.000888522
1.18743e-06
0.000850259
1.63788e-06
0.000810173
2.07917e-06
0.000773865
1.98735e-06
0.000740568
3.33828e-06
0.000692305
5.17996e-06
0.00065955
7.31376e-06
0.000643909
7.35614e-06
0.000612291
7.48131e-06
0.000588157
9.58421e-06
0.000559115
1.50654e-05
0.000547177
1.59623e-05
0.000518589
1.63104e-05
0.000541685
1.83886e-05
0.000478292
1.11951e-05
0.000292827
1.67527e-05
0.00045861
1.97682e-05
0.000499287
1.75224e-05
0.000217512
1.33837e-05
0.000237336
1.51701e-05
0.000370821
2.2413e-05
0.000454116
3.021e-05
0.000441456
3.83913e-05
0.000350477
4.40808e-05
0.000345248
3.25261e-05
0.000249969
2.2963e-05
6.91376e-05
2.5451e-05
2.30091e-05
2.40512e-05
0.000104262
2.32838e-05
0.000307123
2.06433e-05
0.000368457
2.52037e-05
0.000323341
4.19593e-05
0.000277746
4.29667e-05
0.000288577
3.92676e-05
0.000216803
2.38567e-05
0.000105942
1.79244e-05
5.72057e-06
1.97547e-05
1.40647e-05
2.239e-05
0.000162207
3.19581e-05
0.000242755
3.0444e-05
0.000261088
2.08962e-05
0.00019478
8.45236e-06
1.83013e-05
1.0356e-05
1.45073e-05
2.33721e-06
0.000168231
-6.55961e-06
2.13614e-05
-1.35046e-05
0.000108634
-1.16071e-05
0.000157859
-4.69265e-06
0.000167364
0.000147426
2.82584e-05
2.27195e-05
3.13049e-05
8.66804e-05
2.11224e-05
0.000138168
9.63468e-06
0.000161089
1.51954e-05
4.48311e-05
5.92399e-06
0.000169175
1.18045e-05
0.000124021
9.51187e-06
2.90291e-05
-1.55071e-05
0.000137779
-1.93312e-05
0.000250191
-9.04838e-06
0.000272904
-7.2569e-06
0.000244323
-8.2094e-06
5.56396e-05
-1.15389e-05
-3.54336e-05
-2.32374e-05
3.53827e-05
-4.14821e-05
0.000203333
-4.23099e-05
0.000287608
-2.595e-05
0.000275175
-1.7505e-05
0.000310966
-8.14826e-06
0.000369726
-1.23337e-05
0.000348404
-2.11685e-05
0.000169681
-1.85303e-05
3.2611e-05
-1.40618e-05
5.73941e-05
-1.7767e-05
0.000220463
-2.67536e-05
0.000318914
-2.62797e-05
0.000342238
-1.34933e-05
0.000433402
6.57023e-06
0.000457704
-5.57554e-06
0.000374678
-1.05011e-05
0.000225806
-1.2258e-06
0.000240068
1.03698e-06
0.000435121
-3.18773e-07
0.000463472
-8.58717e-06
0.00048761
-7.20287e-06
0.000496029
-7.20789e-06
0.00051786
-9.73658e-06
0.000498273
-3.43959e-06
0.000444042
-3.33252e-06
0.00055201
-2.69839e-06
0.00063169
-1.71308e-06
0.000616074
-8.84397e-07
0.000611892
1.40808e-07
0.000656968
-7.00804e-07
0.00071694
-7.31264e-08
0.000736683
-2.45079e-07
0.000773768
-3.62029e-07
0.000814682
-9.32534e-08
0.000849162
1.44101e-07
0.000891985
8.19417e-07
0.000888471
1.26714e-06
0.000850405
1.50367e-06
0.000810504
1.90748e-06
0.000774002
2.30287e-06
0.00074069
3.39559e-06
0.000691703
4.86296e-06
0.000658553
4.86291e-06
0.000644357
4.76968e-06
0.000612813
6.8109e-06
0.000586524
6.27521e-06
0.00056004
-8.68523e-06
0.00056251
-1.01037e-05
0.000520361
9.84625e-07
0.000530936
2.29945e-06
0.000477299
7.77915e-06
0.000287646
1.09725e-05
0.000455708
1.24289e-05
0.000498112
2.01598e-05
0.000210036
1.49809e-05
0.000242761
-5.05033e-06
0.000391094
1.43992e-05
0.000434901
3.63864e-05
0.000419692
3.7651e-05
0.000349424
2.69028e-05
0.0003562
1.88217e-05
0.000258238
2.21022e-05
6.60308e-05
2.31274e-05
2.2145e-05
1.83022e-05
0.000109248
1.41767e-05
0.000311414
1.9223e-05
0.000363579
2.87816e-05
0.000313937
4.99182e-05
0.000256757
5.3102e-05
0.000285539
3.77753e-05
0.000232258
2.37312e-05
0.000120102
2.16408e-05
7.91559e-06
1.87823e-05
1.70266e-05
1.3194e-05
0.0001679
2.41694e-05
0.000231879
2.64315e-05
0.000258924
1.92457e-05
0.000202055
9.56221e-06
2.80645e-05
4.61488e-06
1.95291e-05
-1.87546e-06
0.000174803
-1.09198e-05
3.04782e-05
-2.83392e-05
0.000126127
-2.8016e-05
0.000157606
-1.04053e-05
0.000149819
0.000137085
1.31821e-05
9.59708e-06
1.42767e-05
8.56514e-05
5.39639e-06
0.000147117
2.82071e-06
0.000163738
3.33583e-06
4.43866e-05
-1.86843e-06
0.000174463
1.25745e-05
0.000109662
2.35401e-06
3.93304e-05
-1.97058e-05
0.000159922
-2.38435e-05
0.000254425
-1.00235e-05
0.000259184
-7.02517e-06
0.00024143
-1.01835e-05
5.89041e-05
-1.38978e-05
-3.16164e-05
-2.82714e-05
4.98698e-05
-3.87798e-05
0.000213967
-4.20762e-05
0.000291046
-3.01409e-05
0.000263386
-1.99146e-05
0.000300891
-4.96009e-06
0.000354938
-6.91658e-06
0.000350529
-1.93234e-05
0.000182252
-1.97349e-05
3.31857e-05
-2.61141e-05
6.39477e-05
-3.65268e-05
0.000231063
-3.80383e-05
0.000320629
-3.45791e-05
0.000338994
-2.22097e-05
0.000421256
-1.13541e-05
0.000447085
-7.8775e-06
0.000371444
-1.30108e-05
0.000231184
-2.34618e-05
0.000250779
-2.68579e-05
0.000438797
-2.23791e-05
0.000459287
-1.21565e-05
0.000477694
-9.59604e-06
0.000493791
-1.05327e-05
0.000519136
-4.90177e-06
0.000492994
-1.16096e-05
0.000451115
-1.05972e-05
0.000551386
-8.31642e-06
0.000629819
-5.67351e-06
0.000613859
-4.34245e-06
0.000611007
-5.30028e-06
0.000658393
-3.24608e-06
0.000715378
-1.20454e-06
0.000735156
-3.15446e-07
0.000773419
-3.83906e-07
0.000815316
9.71256e-08
0.000849275
2.73438e-07
0.00089243
7.21026e-07
0.000888646
1.1892e-06
0.000850529
1.95675e-06
0.000810303
1.95576e-06
0.000774542
2.30535e-06
0.000740856
3.58518e-06
0.000690913
5.00504e-06
0.000657601
7.34892e-06
0.000642461
7.91526e-06
0.000612673
7.7014e-06
0.000587146
9.23242e-06
0.000558898
1.77155e-05
0.000554398
1.90168e-05
0.000519414
1.82304e-05
0.000532063
2.24405e-05
0.000473411
1.31474e-05
0.000297237
1.92809e-05
0.000449868
2.31095e-05
0.000494567
1.33222e-05
0.000220083
1.07261e-05
0.000245603
1.37519e-05
0.000388311
2.42642e-05
0.000424625
3.83392e-05
0.00040584
4.06525e-05
0.000347323
4.33133e-05
0.000353745
3.58786e-05
0.000265864
2.41271e-05
7.79538e-05
2.23958e-05
2.40414e-05
1.4e-05
0.000117803
8.26152e-06
0.000317319
2.00533e-05
0.000351953
3.71293e-05
0.000297012
4.96031e-05
0.000244427
4.89417e-05
0.000286343
4.37523e-05
0.000237577
2.89165e-05
0.000135053
2.00354e-05
1.69047e-05
1.21959e-05
2.49682e-05
1.2161e-05
0.000168039
2.35703e-05
0.000220568
2.25364e-05
0.000260056
1.76484e-05
0.000207035
3.34618e-06
4.24456e-05
2.18773e-07
2.27338e-05
-1.99681e-06
0.000177101
-1.48975e-05
4.34515e-05
-1.87194e-05
0.000130025
-2.33806e-05
0.000162342
-1.40856e-05
0.000140596
0.000123071
3.58367e-06
6.07289e-06
-5.89035e-06
9.51908e-05
-1.0786e-05
0.000152081
-6.12632e-06
0.000159153
-1.05202e-05
4.88531e-05
-1.04339e-05
0.000174463
1.12812e-07
9.91995e-05
-7.91027e-06
4.74343e-05
-2.46549e-05
0.000176755
-2.23684e-05
0.000252237
-3.97909e-06
0.000240898
-6.14872e-06
0.000243707
-1.21446e-05
6.50061e-05
-1.16364e-05
-3.20175e-05
-2.4328e-05
6.26733e-05
-3.70971e-05
0.000226864
-4.48451e-05
0.000298937
-3.40063e-05
0.000252693
-1.20873e-05
0.000279123
7.0532e-07
0.000342308
-4.77325e-06
0.000356177
-1.60011e-05
0.000193645
-1.63835e-05
3.37362e-05
-1.2084e-05
5.98212e-05
-1.84253e-05
0.000237597
-3.58642e-05
0.000338274
-3.96718e-05
0.000343018
-1.60289e-05
0.00039784
6.20488e-06
0.00042509
-5.7632e-06
0.000383658
-9.12727e-06
0.000234798
-5.11462e-06
0.000247028
-6.19184e-06
0.000440159
-5.11061e-06
0.000458503
-4.86377e-06
0.000477759
-5.09079e-06
0.000494344
-9.37582e-06
0.000523765
-1.05687e-05
0.000494544
-6.16021e-06
0.000447075
-5.96807e-06
0.000551587
-3.32282e-06
0.000627589
-2.51112e-06
0.000613481
-1.56794e-06
0.000610516
-6.90757e-07
0.000657992
-1.05912e-06
0.000716246
7.81216e-08
0.000734543
-2.69501e-07
0.000774314
-5.73645e-07
0.000816196
5.06281e-09
0.000849298
1.82137e-07
0.000892886
8.0986e-07
0.000888649
1.54011e-06
0.000850402
1.77815e-06
0.000810639
1.69915e-06
0.00077517
1.89881e-06
0.000741179
3.26331e-06
0.000690047
5.77007e-06
0.000655569
6.07198e-06
0.000642614
5.37386e-06
0.000613805
5.76745e-06
0.000587166
5.43258e-06
0.000559628
-1.59307e-06
0.0005618
-1.74717e-06
0.000519928
2.87044e-06
0.000527789
3.69489e-06
0.000472913
7.3937e-06
0.000293842
1.2099e-05
0.000445458
1.5837e-05
0.000491116
1.72155e-05
0.000218965
1.50748e-05
0.000247995
1.53655e-06
0.000402096
1.59879e-05
0.000410412
3.86138e-05
0.00038344
3.96216e-05
0.000346531
3.08964e-05
0.000362677
2.25215e-05
0.000274431
2.12504e-05
7.94019e-05
2.02664e-05
2.51891e-05
1.33736e-05
0.00012486
1.04258e-07
0.000330755
8.70621e-06
0.000343515
3.8377e-05
0.000267493
5.24706e-05
0.000230476
4.70808e-05
0.000291875
3.90526e-05
0.000245735
2.60361e-05
0.000148189
2.1069e-05
2.19778e-05
1.11502e-05
3.49917e-05
8.64749e-07
0.000178432
2.23726e-05
0.000199165
2.84108e-05
0.000254116
1.82877e-05
0.000217251
5.96806e-06
5.48477e-05
4.96526e-06
2.3813e-05
2.62501e-06
0.000179525
-6.96845e-06
5.31193e-05
-1.13903e-05
0.000134525
-1.78527e-05
0.000168882
-1.7262e-05
0.00014008
0.000105878
-5.10197e-06
1.12342e-05
-1.64009e-05
0.000106556
-1.43911e-05
0.000150143
-7.04387e-06
0.000151883
-1.81994e-05
6.00812e-05
-2.07237e-05
0.000177074
-1.06377e-06
7.96231e-05
-1.53504e-05
6.18047e-05
-2.58265e-05
0.000187321
-1.86569e-05
0.00024517
8.22097e-07
0.000221529
-3.17867e-07
0.000244959
-6.70246e-06
7.14987e-05
-1.53375e-05
-2.32772e-05
-2.39191e-05
7.13714e-05
-3.12023e-05
0.000234276
-4.13835e-05
0.000309262
-3.42917e-05
0.000245747
-6.57436e-06
0.000251555
7.45665e-06
0.000328438
-7.79197e-06
0.000371597
-1.29837e-05
0.000199005
-1.88323e-05
3.97516e-05
-2.89686e-05
7.01356e-05
-3.46579e-05
0.000243478
-3.59539e-05
0.000339778
-3.51917e-05
0.000342474
-2.40005e-05
0.000386876
-1.46928e-05
0.000416023
-8.94014e-06
0.000378153
-1.25305e-05
0.000238638
-2.46294e-05
0.000259392
-2.76313e-05
0.000443446
-2.37475e-05
0.000454919
-1.41146e-05
0.000468439
-1.02035e-05
0.000490761
-9.01581e-06
0.000522923
-4.26638e-06
0.000490152
-1.16873e-05
0.000454869
-9.81701e-06
0.000550111
-7.23735e-06
0.000625425
-5.35988e-06
0.000612039
-5.63584e-06
0.000611245
-6.0518e-06
0.000658885
-3.64392e-06
0.000714338
-2.2348e-06
0.000733657
-9.08301e-07
0.000773537
-5.6403e-07
0.000816428
1.7463e-07
0.000849162
6.60358e-07
0.000893033
8.70999e-07
0.000889071
1.15994e-06
0.000850717
1.75288e-06
0.000810622
3.30696e-06
0.000774165
4.30944e-06
0.000740701
3.95555e-06
0.000690901
2.86989e-06
0.000657131
4.72822e-06
0.000641212
8.23389e-06
0.000610735
9.34457e-06
0.000586471
9.66646e-06
0.000559702
1.76701e-05
0.000554175
1.83851e-05
0.000519574
1.68773e-05
0.000529643
2.3913e-05
0.000466205
1.59074e-05
0.000302152
2.08645e-05
0.000440801
2.3998e-05
0.000488271
1.36854e-05
0.000229544
1.30957e-05
0.000248835
1.99014e-05
0.000395539
2.55073e-05
0.000405047
3.50524e-05
0.000374122
3.7398e-05
0.000344403
3.85575e-05
0.000361727
3.65341e-05
0.00027665
2.73598e-05
8.87515e-05
2.03697e-05
3.23479e-05
1.74366e-05
0.000127956
5.28169e-06
0.000343079
1.28291e-05
0.000336131
2.84995e-05
0.000251971
3.83995e-05
0.000220719
4.19913e-05
0.000288426
3.74557e-05
0.000250402
3.04665e-05
0.000155296
2.2975e-05
2.95793e-05
1.65903e-05
4.14802e-05
7.86421e-06
0.000187267
1.70381e-05
0.000190103
2.60617e-05
0.000245195
2.37721e-05
0.000219638
1.48049e-05
6.38967e-05
6.11457e-06
3.25823e-05
7.3246e-08
0.000185654
-1.76447e-06
5.5032e-05
-2.78476e-06
0.000135622
-1.99424e-05
0.000186117
-1.80359e-05
0.000138244
8.79089e-05
1.06793e-06
1.02265e-05
-6.44825e-06
0.00011414
-1.7315e-05
0.000161083
-1.50995e-05
0.000149746
-1.60988e-05
6.11554e-05
-2.17063e-05
0.000182768
-1.65528e-05
7.45543e-05
-2.06097e-05
6.59452e-05
-2.85034e-05
0.000195312
-2.77748e-05
0.00024455
-4.84643e-06
0.000198717
-5.96467e-07
0.000240826
-8.33575e-06
7.93462e-05
-1.17506e-05
-1.97532e-05
-2.01483e-05
7.98835e-05
-3.29178e-05
0.000247177
-3.97107e-05
0.0003162
-3.63521e-05
0.000242535
-1.62462e-05
0.000231601
6.49146e-06
0.000305862
-4.09727e-06
0.000382357
-1.39139e-05
0.000208991
-1.6235e-05
4.2244e-05
-1.58839e-05
6.99608e-05
-2.06874e-05
0.000248478
-3.33405e-05
0.000352641
-3.63956e-05
0.00034575
-1.68816e-05
0.000367591
-2.1583e-06
0.000401543
-8.38683e-06
0.000384632
-8.34572e-06
0.000238852
-8.05885e-06
0.000259371
-8.93207e-06
0.000444609
-6.98208e-06
0.000453272
-5.40627e-06
0.00046718
-5.30523e-06
0.000490993
-9.08162e-06
0.00052705
-1.02775e-05
0.00049171
-7.19213e-06
0.000452159
-7.1332e-06
0.000550452
-3.77337e-06
0.000622487
-2.81114e-06
0.000611517
-3.46536e-06
0.000612359
-2.64214e-06
0.000658543
-1.01561e-06
0.00071322
8.49013e-07
0.000732324
-4.21511e-07
0.000775365
-6.74697e-07
0.000817265
-1.53681e-07
0.000849254
-7.33116e-09
0.000893528
8.73525e-07
0.000888832
1.30992e-06
0.000850892
1.70558e-06
0.00081081
1.03539e-06
0.000775392
1.38615e-06
0.000740882
4.03107e-06
0.000688762
6.19212e-06
0.000655453
6.69495e-06
0.000641171
6.79809e-06
0.000611072
5.84126e-06
0.000587849
5.11277e-06
0.000560831
2.53798e-06
0.000557133
2.41288e-06
0.000520064
4.38848e-06
0.000528017
5.80808e-06
0.000465117
8.65193e-06
0.000299618
1.30125e-05
0.000436741
1.66219e-05
0.000484954
1.52607e-05
0.00023117
1.5565e-05
0.000248787
1.17229e-05
0.000399632
1.80879e-05
0.000398926
3.21632e-05
0.000360276
3.56482e-05
0.000341138
2.99698e-05
0.000367617
2.28571e-05
0.00028396
2.18918e-05
8.98976e-05
1.94078e-05
3.49985e-05
1.39174e-05
0.000133614
4.55704e-06
0.000352611
2.08451e-05
0.000320006
3.79207e-05
0.000235047
4.09927e-05
0.000217792
3.91988e-05
0.000290365
2.88732e-05
0.000260861
2.52025e-05
0.000159089
2.25815e-05
3.23091e-05
1.70836e-05
4.70855e-05
1.56707e-05
0.000188791
2.12743e-05
0.00018461
1.75398e-05
0.000249039
1.70907e-05
0.000220189
1.40708e-05
6.70023e-05
1.24e-05
3.43309e-05
8.67024e-06
0.000189472
1.26504e-06
6.25135e-05
3.17302e-06
0.00013379
-9.24287e-06
0.00019861
4.35791e-07
0.000128635
8.84089e-05
-4.45759e-06
1.47446e-05
-1.05791e-05
0.00012033
-1.2638e-05
0.000163217
-1.58463e-05
0.000153031
-1.70646e-05