/*--------------------------------*- C++ -*----------------------------------*\
| =========                 |                                                 |
| \\      /  F ield         | OpenFOAM: The Open Source CFD Toolbox           |
|  \\    /   O peration     | Version:  2312                                  |
|   \\  /    A nd           | Website:  www.openfoam.com                      |
|    \\/     M anipulation  |                                                 |
\*---------------------------------------------------------------------------*/
FoamFile
{
    version     2.0;
    format      ascii;
    arch        "LSB;label=32;scalar=64";
    class       surfaceScalarField;
    location    "2";
    object      phi.water;
}
// * * * * * * * * * * * * * * * * * * * * * * * * * * * * * * * * * * * * * //

dimensions      [0 3 -1 0 0 0 0];

oriented        oriented;

internalField   nonuniform List<scalar> 
99400
(
6.21469e-06
-1.45595e-05
-7.57931e-06
5.44925e-06
-1.5552e-05
-6.20855e-07
-2.98149e-05
4.62976e-06
-3.46033e-05
-5.30509e-06
-6.06109e-05
1.5114e-05
-4.89654e-05
-2.22434e-05
-6.03943e-06
-5.38558e-05
2.08718e-05
-3.82372e-05
-4.70838e-06
1.25137e-05
-3.20635e-05
1.41973e-05
-5.64662e-05
1.04591e-05
-4.44064e-05
-2.67147e-05
1.46614e-05
-7.28038e-05
7.52595e-05
-7.50049e-05
9.92988e-05
-4.0564e-05
6.65349e-05
1.42371e-05
2.00456e-05
2.71158e-05
-9.04388e-06
1.05863e-05
-4.57916e-05
1.69803e-05
-8.41093e-05
1.65884e-05
-6.89298e-05
-3.74888e-05
-1.02923e-05
-8.062e-05
6.07932e-05
-9.42256e-05
9.74278e-05
-6.1764e-05
7.89774e-05
-8.37864e-06
4.21028e-05
8.9383e-06
1.3743e-05
1.42467e-06
-2.61274e-05
1.14032e-05
-4.23459e-05
-1.48484e-05
1.51871e-05
-9.03453e-05
5.93762e-05
-7.85308e-05
3.7488e-05
-1.19868e-05
1.84588e-05
-1.45501e-05
1.41053e-05
-3.32569e-05
1.52525e-06
-2.60015e-05
-1.99134e-05
-1.78805e-05
-2.10824e-05
-4.06518e-05
1.20971e-05
-7.87213e-05
1.39762e-05
-4.7675e-05
-2.56343e-06
-3.1717e-05
-5.87897e-06
-4.70529e-05
3.97822e-07
-6.01026e-05
5.04813e-06
-6.03486e-05
1.20277e-06
-5.43277e-05
5.73706e-07
-5.97766e-05
3.83271e-08
-6.25937e-05
-3.02765e-07
-6.57758e-05
3.2009e-07
-6.99682e-05
4.16653e-07
-7.26725e-05
9.74628e-07
-7.32479e-05
1.11218e-06
-6.94058e-05
1.21812e-06
-6.62171e-05
9.73148e-07
-6.28479e-05
3.50736e-07
-5.96394e-05
3.33092e-06
-6.09623e-05
6.35777e-06
-5.83696e-05
4.33585e-06
-5.04375e-05
4.22849e-06
-4.98499e-05
-2.02791e-06
-4.21847e-05
-4.54903e-06
-4.306e-05
-4.62426e-06
-4.47472e-05
-1.25613e-05
-3.41267e-05
-3.66266e-05
-1.34174e-05
-4.08077e-05
-3.46611e-05
7.28214e-06
-8.7615e-05
-7.69397e-06
-1.91879e-05
-4.41749e-05
1.53138e-06
4.73727e-06
-8.33201e-05
5.7138e-05
-8.53128e-05
3.95792e-05
-1.3602e-05
-8.84806e-07
1.18817e-05
-2.89947e-05
1.04822e-06
-6.56806e-05
9.33201e-06
-9.67288e-05
3.90824e-06
-7.04122e-05
-5.12207e-05
1.58869e-06
-9.40484e-05
7.1005e-05
-9.15427e-05
0.00010095
-5.19474e-05
6.98861e-05
9.36778e-06
3.16146e-05
1.81111e-05
6.14846e-06
7.56255e-06
-3.61842e-05
2.4269e-05
-7.51646e-05
2.0475e-05
-6.70621e-05
-2.47912e-05
-3.46977e-05
-4.80919e-05
1.85407e-05
-6.78998e-05
5.43784e-05
-4.98158e-05
3.28762e-05
7.12327e-06
7.41829e-06
1.20989e-05
-2.52683e-05
1.88048e-05
-2.81538e-05
-9.58821e-06
2.727e-05
-6.57475e-05
7.66357e-05
-5.90199e-05
7.43248e-05
-8.0281e-06
6.29157e-05
7.73022e-07
4.35711e-05
9.6853e-06
2.66998e-05
7.99677e-06
1.30145e-05
5.19006e-06
3.75763e-06
2.29872e-05
-2.86073e-05
-2.03515e-05
5.67863e-05
-5.3688e-05
4.20904e-05
-3.77167e-05
-1.96102e-06
-3.76097e-05
5.28389e-06
-7.74684e-05
6.25307e-05
-5.4737e-05
-3.50496e-05
1.54245e-06
-9.54605e-05
4.71155e-05
-7.17028e-05
2.53567e-05
4.48094e-05
-4.24109e-05
9.27423e-05
-8.69492e-05
6.82546e-05
-6.03913e-05
-3.70104e-05
8.56946e-06
-0.000125133
6.17906e-05
-0.000110808
9.91767e-05
-6.0688e-05
0.000106195
2.37154e-05
5.42993e-05
9.55453e-05
-2.44937e-05
0.000107631
-8.75872e-05
9.9942e-05
-0.000110869
6.04009e-05
-7.81585e-05
-4.53172e-05
-1.30107e-05
-0.000121142
3.99151e-05
-0.000120184
8.90385e-05
-8.36536e-05
0.000112197
-4.33703e-06
6.82598e-05
8.19475e-05
-1.11428e-05
0.000111823
-7.76965e-05
0.000111062
-6.25242e-05
5.51359e-06
7.26828e-06
-0.000121847
5.17101e-05
-8.27359e-05
1.49219e-05
6.72425e-05
-1.92485e-05
6.63227e-05
9.25444e-06
-1.5407e-05
6.01006e-06
2.71222e-05
-3.10512e-05
7.25147e-05
-2.63536e-05
7.79094e-06
1.04419e-05
-5.83449e-05
1.38599e-05
6.97292e-06
-9.57394e-06
5.44006e-05
-1.25178e-05
2.02427e-05
-2.57919e-06
-2.05428e-06
1.11532e-06
7.97746e-06
-9.90048e-07
2.33788e-05
-1.30728e-06
1.871e-05
-2.46747e-07
1.7495e-05
-5.4276e-08
1.89213e-05
2.80227e-07
1.86875e-05
4.36408e-07
2.02669e-05
9.95698e-07
1.93068e-05
1.07075e-06
1.94073e-05
1.40112e-06
1.82937e-05
2.05217e-06
1.7508e-05
2.29092e-06
1.73146e-05
3.67873e-06
1.14424e-05
4.6167e-06
1.06745e-05
6.44593e-06
1.44319e-05
7.64818e-06
1.31427e-05
2.16621e-07
2.70095e-05
1.05775e-06
1.40369e-05
2.23985e-05
-1.11192e-05
1.05011e-05
3.3095e-05
-4.0553e-05
8.98596e-05
-2.90552e-05
9.38916e-07
3.32908e-05
-0.000104299
4.10499e-06
5.5405e-05
-4.03854e-05
8.69136e-05
6.2014e-06
-8.9663e-05
7.23741e-05
-0.000113246
8.89831e-05
4.87278e-06
2.93264e-05
0.000104651
-4.48092e-05
0.000106298
-9.2947e-05
8.66363e-05
-9.29113e-05
3.10128e-05
-5.39914e-05
-6.32642e-05
3.09315e-06
-0.000124579
6.78346e-05
-0.000130296
0.000115237
-7.51511e-05
0.000112863
3.27331e-05
5.98285e-05
9.19329e-05
-1.95513e-05
0.00010575
-8.09437e-05
0.000102121
-9.18489e-05
4.72902e-05
-6.28385e-05
-3.67883e-05
-2.06635e-05
-7.24352e-05
3.10928e-05
-0.000100696
7.5132e-05
-7.84081e-05
7.02455e-05
2.54834e-05
7.28713e-07
9.37369e-05
-6.22304e-05
9.26053e-05
-4.85669e-05
-1.16703e-05
1.08629e-05
-0.000111178
6.28343e-05
-9.51763e-05
8.03811e-05
-1.5382e-05
9.38837e-05
-2.61043e-06
8.31228e-05
2.92279e-05
5.2814e-05
4.68513e-05
2.09415e-05
4.54535e-05
3.32327e-05
-3.29896e-05
4.98079e-06
-3.23738e-05
5.36733e-05
-3.30588e-05
3.89249e-05
-3.14745e-05
-4.2578e-06
1.42469e-05
-4.29971e-05
2.56845e-05
5.03419e-05
-5.12461e-06
-2.86035e-06
-6.36529e-06
-9.27177e-05
1.90061e-06
-7.83942e-05
-7.23126e-06
5.42046e-05
-3.05936e-05
0.000112211
-3.65567e-05
7.13013e-05
-9.15931e-06
-6.40305e-05
1.49076e-05
-0.000149271
3.19723e-05
-0.000127297
1.93886e-05
-4.60919e-05
1.15276e-05
2.95142e-05
3.28872e-06
0.000100494
-2.21333e-05
0.000123628
-5.0554e-05
0.000121376
-5.55309e-05
6.1592e-05
-3.4355e-05
-6.71162e-05
-1.00297e-05
-0.000145111
1.77032e-05
-0.000148013
1.56141e-05
-8.04175e-05
7.54116e-06
5.81713e-07
3.41377e-06
7.95062e-05
-7.00901e-06
0.000109983
-1.47513e-05
0.000107178
-1.90111e-05
4.0948e-06
-9.81901e-06
-0.000131232
2.58782e-06
-9.67083e-05
8.91954e-06
4.90534e-05
1.19115e-05
4.6594e-05
-1.14085e-05
-3.41451e-06
-1.82076e-05
1.57553e-05
-6.9278e-06
4.24586e-05
-5.73088e-06
-7.36055e-06
-4.12606e-06
-7.13475e-05
-4.78947e-06
-6.92427e-06
-4.22165e-06
2.95754e-05
-4.75582e-06
3.50826e-06
-1.73184e-06
-2.54247e-05
1.41428e-06
-1.35959e-05
2.58862e-08
4.65559e-06
2.61791e-07
-1.34198e-06
1.9922e-08
-2.70139e-06
-3.94278e-07
-1.91218e-06
1.9578e-07
-4.43856e-06
3.46001e-07
-3.31336e-06
9.30772e-07
-5.12959e-06
1.06109e-06
-3.3113e-06
1.35157e-06
-3.64452e-06
1.06735e-06
-2.87041e-06
4.28481e-07
-1.64299e-06
3.64703e-06
-1.26556e-05
6.75322e-06
-1.2069e-05
5.56879e-06
-1.96423e-06
5.23611e-06
-2.76259e-06
9.4404e-06
6.07741e-06
7.90004e-06
-5.22708e-08
-8.01768e-06
-6.416e-06
-6.26179e-06
1.66188e-05
5.75306e-06
5.51382e-05
-4.81251e-06
7.4833e-07
2.89255e-06
-0.00011489
4.96058e-06
3.7622e-05
-1.50489e-07
7.98944e-05
2.15041e-05
-0.000112237
2.60601e-05
-0.000118071
2.03725e-05
4.54927e-06
1.59411e-05
9.76541e-05
5.27337e-06
0.000104945
-4.11255e-06
8.87033e-05
-1.47655e-05
3.59178e-05
-1.75122e-05
-5.91484e-05
1.05758e-05
-0.000155507
4.10038e-05
-0.000159777
6.39298e-05
-9.75615e-05
6.08623e-05
3.33934e-05
4.15378e-05
0.000103954
1.53539e-05
0.000122327
1.42452e-06
0.000108214
-4.91873e-06
5.1151e-05
-2.06292e-05
-1.96203e-05
-1.32062e-05
-7.9547e-05
8.46303e-06
-0.000123223
2.71855e-05
-9.71461e-05
3.61665e-05
1.61257e-05
1.85563e-05
0.000106779
3.44454e-06
0.000106982
-8.14284e-06
-3.99947e-07
-1.1931e-06
-0.000118728
-1.82806e-05
-8.00626e-05
-4.51591e-05
1.09337e-05
1.82714e-05
-6.69625e-05
4.14409e-05
5.08832e-06
3.6661e-05
4.83813e-05
1.74255e-05
5.91817e-05
4.86534e-05
-3.18645e-05
3.76153e-05
6.13037e-06
1.64019e-05
1.12388e-05
3.52705e-05
-1.84488e-05
2.87984e-05
5.49407e-06
-6.59581e-05
2.76158e-05
3.0672e-05
9.43265e-06
1.75639e-05
1.291e-05
-9.82654e-05
9.90268e-06
-7.47025e-05
-6.27574e-06
7.0363e-05
-1.87486e-05
0.000122998
-3.47768e-05
8.83815e-05
-2.46234e-05
-7.31928e-05
6.11339e-06
-0.000180063
3.6579e-05
-0.000160166
3.64438e-05
-4.50865e-05
-3.63695e-08
7.13244e-05
-1.58596e-05
0.000117955
-1.86031e-05
0.00012772
-3.94666e-05
0.000142537
-6.20425e-05
8.88756e-05
-5.14494e-05
-7.60543e-05
-1.72841e-05
-0.000178697
1.70994e-05
-0.000185929
2.62452e-05
-8.8965e-05
1.34996e-05
2.10178e-05
2.04959e-05
7.81591e-05
4.397e-06
0.000133369
-4.25803e-05
0.00016225
-4.57305e-05
1.45874e-05
-1.07111e-05
-0.000163488
8.82701e-06
-0.000112784
1.59258e-05
5.2687e-05
2.19897e-05
5.3969e-05
-6.77795e-07
3.3636e-05
-1.90695e-05
5.39471e-05
-1.34814e-05
4.91275e-05
-9.80492e-06
5.50391e-06
5.31744e-06
-7.40754e-05
6.98016e-06
8.60241e-06
-5.95202e-06
6.36312e-05
-6.93005e-06
2.34821e-05
-1.86469e-06
-1.09792e-05
1.46194e-06
4.25844e-06
-3.11469e-07
2.81245e-05
-1.04858e-06
2.48119e-05
-3.96427e-07
2.17877e-05
-7.4461e-08
2.58768e-05
1.54282e-07
2.26262e-05
1.0201e-07
2.77816e-05
6.75235e-07
2.32815e-05
1.08444e-06
2.55782e-05
1.5512e-06
2.19771e-05
2.0036e-06
2.32515e-05
2.15479e-06
2.16756e-05
3.78489e-06
1.00789e-05
4.84632e-06
9.4294e-06
3.51735e-06
2.04838e-05
4.24517e-06
1.58464e-05
3.3747e-06
2.3463e-05
1.74687e-06
1.96398e-05
-9.89175e-07
1.42735e-05
3.24221e-06
2.8953e-05
-8.84457e-06
8.04149e-05
-1.66105e-05
2.28785e-05
1.28168e-05
-0.00013867
5.20654e-06
5.72574e-05
-8.79028e-06
0.000104545
1.996e-05
-0.000138823
4.98689e-05
-0.000145145
4.61861e-05
1.64864e-05
6.97766e-06
0.000145435
-1.3273e-05
0.000132589
-4.18847e-06
8.53791e-05
-2.02906e-05
5.99674e-05
-1.90209e-05
-5.9443e-05
1.49682e-05
-0.000188097
4.96537e-05
-0.000198306
6.57921e-05
-0.000112605
4.67215e-05
5.90878e-05
3.53593e-05
0.000114471
2.79472e-05
0.000130895
2.0266e-05
0.000116185
-1.7002e-05
9.28898e-05
-2.9493e-05
-5.31273e-06
-6.78944e-06
-0.00010181
1.64043e-05
-0.000149004
3.78118e-05
-0.00011794
3.57575e-05
2.03016e-05
2.84254e-05
0.000113695
1.76126e-05
0.000117967
-1.04857e-05
3.25675e-05
7.78481e-06
-0.000137614
2.19545e-05
-9.61444e-05
-3.08741e-06
3.94683e-05
2.09551e-05
-8.93521e-05
4.26439e-05
-1.52608e-05
3.19042e-05
6.00299e-05
1.35022e-05
7.8242e-05
5.98538e-05
6.93795e-06
2.7982e-05
1.34359e-05
8.50837e-06
1.91608e-05
2.7254e-05
2.54712e-05
1.97912e-05
2.51453e-05
-6.90563e-05
3.01114e-05
2.45282e-05
3.32144e-05
1.17819e-05
2.0927e-05
-8.86606e-05
-1.36589e-06
-5.62715e-05
-1.43529e-05
8.08387e-05
-2.18007e-05
0.00012734
-2.33807e-05
8.71997e-05
-7.97986e-06
-9.2029e-05
2.61905e-06
-0.000195051
4.01634e-06
-0.000165653
-1.46958e-05
-2.99365e-05
-2.31044e-05
7.5171e-05
-2.13542e-05
0.000112667
-1.90931e-05
0.000118685
-3.12702e-05
0.000149059
-4.06858e-05
9.21804e-05
-3.07489e-05
-9.22496e-05
-1.6339e-05
-0.000200039
-1.29714e-05
-0.000195421
-2.37678e-05
-8.57822e-05
-2.30311e-05
1.00977e-05
-6.95047e-06
5.50202e-05
-7.17515e-06
0.000122278
-2.69525e-06
0.000147654
-1.66846e-06
-9.24078e-08
-2.02653e-05
-0.000157953
-1.53756e-05
-0.000130425
-1.42365e-05
3.59831e-05
-1.41217e-05
3.50287e-05
-1.19049e-05
6.64701e-06
-6.79295e-06
2.40255e-05
-6.58372e-06
2.71944e-05
-4.80971e-06
-2.43474e-05
-1.06159e-05
-9.05647e-05
-1.09125e-05
-2.1733e-05
-6.53942e-06
2.6792e-05
-5.25932e-06
-1.16233e-05
-2.33168e-06
-4.73791e-05
-1.97979e-06
-3.48313e-05
-2.16423e-06
-1.04111e-05
-2.30075e-07
-2.08555e-05
2.36343e-07
-2.1693e-05
-4.28283e-07
-2.09163e-05
2.66861e-08
-2.50576e-05
3.00209e-07
-2.48567e-05
9.6422e-07
-2.72994e-05
1.07367e-06
-2.43787e-05
1.50422e-06
-2.39066e-05
1.60362e-06
-2.2182e-05
1.22784e-06
-1.90426e-05
3.31713e-06
-3.26885e-05
6.09084e-06
-3.15105e-05
7.07843e-06
-1.66775e-05
6.4141e-06
-1.85115e-05
9.40146e-06
-1.01401e-05
1.15538e-05
-1.38882e-05
6.17078e-06
-9.08829e-06
6.44472e-06
1.333e-06
1.38357e-05
5.21061e-05
1.16656e-05
9.55839e-07
7.94302e-06
-0.000152121
1.29656e-05
3.39212e-05
1.5198e-05
8.82117e-05
2.45165e-05
-0.000160014
8.336e-06
-0.000142181
9.96996e-06
7.29216e-07
1.48797e-05
0.000130072
1.18043e-05
0.000123993
2.90663e-05
6.07013e-05
3.37335e-05
4.64581e-05
2.0563e-05
-5.2446e-05
1.89769e-05
-0.000193975
3.24452e-05
-0.000217041
4.76789e-05
-0.000134855
4.35429e-05
5.69727e-05
2.84332e-05
0.000127446
2.96383e-05
0.000122657
3.19569e-05
0.000113492
3.31395e-05
8.76339e-05
2.08717e-05
2.41182e-06
4.96615e-06
-9.08797e-05
1.40007e-05
-0.000160191
2.68975e-05
-0.000134685
3.49843e-05
9.20029e-06
3.09418e-05
0.000113646
2.46823e-05
0.000121534
1.75078e-05
3.57048e-05
3.13378e-06
-0.000126262
2.31979e-06
-9.75088e-05
5.16908e-07
3.91037e-05
9.65873e-06
-0.000100881
1.11306e-05
-1.83693e-05
1.25104e-05
5.63173e-05
4.17708e-06
8.39352e-05
6.18303e-05
2.50273e-05
3.12479e-06
3.481e-05
4.7328e-07
4.18474e-05
2.16062e-05
3.11427e-05
3.21321e-05
2.35803e-05
-6.08326e-05
2.10092e-05
2.73742e-05
1.79294e-05
1.60105e-05
1.83841e-05
-8.95341e-05
4.4202e-06
-4.21391e-05
-1.1053e-05
0.000101524
-1.88145e-05
0.000140163
-2.12695e-05
9.21449e-05
-1.29636e-05
-9.91492e-05
-3.33754e-06
-0.000204928
9.02417e-07
-0.000166853
-1.90677e-05
-8.36927e-06
-3.77766e-05
9.68808e-05
-2.19818e-05
9.88575e-05
-1.38312e-05
0.000112568
-1.88372e-05
0.000155944
-3.36211e-05
0.000109668
-3.63726e-05
-8.73733e-05
-1.87604e-05
-0.000216522
-3.96766e-06
-0.000209022
-1.07978e-05
-7.668e-05
-1.16212e-05
1.79334e-05
1.46173e-06
4.4239e-05
-6.61152e-06
0.000134515
-4.37542e-06
0.000148588
-1.20602e-05
1.76602e-05
-1.21455e-05
-0.000153778
2.1126e-06
-0.000138642
1.46555e-05
3.13245e-05
1.31937e-05
4.57864e-05
-1.59091e-05
5.71951e-05
-1.79485e-05
4.30478e-05
-5.7319e-06
3.03003e-05
-6.85154e-06
-2.09868e-06
2.59986e-07
-8.6243e-05
5.10337e-07
5.22855e-07
-3.17824e-06
4.99325e-05
-2.0762e-06
1.14939e-05
-6.24917e-07
-2.23559e-05
6.10216e-07
-1.10437e-05
-4.95328e-07
2.08954e-05
-4.80053e-07
8.08929e-06
-3.22079e-07
1.18297e-05
-3.26948e-07
1.03685e-05
-3.04879e-08
1.15608e-05
1.2233e-07
9.36333e-06
7.51859e-07
1.09519e-05
1.07974e-06
8.18646e-06
1.50077e-06
1.10747e-05
1.99169e-06
7.20998e-06
2.53183e-06
1.21046e-05
3.35501e-06
-6.43844e-06
4.33787e-06
-3.65581e-06
2.70735e-06
1.09557e-05
2.57581e-06
6.77375e-06
6.76202e-06
7.71047e-06
6.61363e-06
9.07582e-06
-1.06099e-05
2.96576e-05
-9.05028e-06
1.63568e-05
-3.04296e-07
5.55811e-05
-4.14722e-06
2.24513e-05
9.53786e-06
-0.000158292
9.49275e-06
4.41157e-05
5.39192e-06
9.8609e-05
2.15533e-05
-0.000171734
1.72628e-05
-0.000133655
3.60248e-06
2.51309e-05
1.18184e-05
0.000125444
8.84829e-06
0.000131282
2.14745e-05
5.13046e-05
1.58848e-05
5.74717e-05
5.0726e-06
-3.962e-05
2.04325e-05
-0.000207363
3.50562e-05
-0.000231568
4.3806e-05
-0.000141324
2.98052e-05
7.24368e-05
1.4118e-05
0.000147885
2.14864e-05
0.000116906
4.60474e-05
9.16169e-05
4.19242e-05
9.32181e-05
1.47887e-05
3.26939e-05
8.4296e-06
-8.34359e-05
1.56917e-05
-0.000166696
2.60186e-05
-0.000144412
2.59888e-05
1.10303e-05
3.2451e-05
0.000107614
3.28911e-05
0.000120678
1.38769e-05
5.55459e-05
4.6563e-06
-0.000116736
9.40245e-06
-0.000102691
4.71354e-06
4.23069e-05
3.28729e-06
-9.89279e-05
-8.31453e-06
-5.1959e-06
-8.9744e-06
5.82929e-05
-2.67676e-06
7.79672e-05
6.23335e-05
4.62004e-05
-4.34826e-05
5.22112e-05
-7.03659e-06
4.43419e-05
2.84246e-05
3.07297e-05
4.42573e-05
2.61007e-05
-5.83012e-05
1.10892e-05
4.12435e-05
1.89524e-05
7.15642e-06
2.73548e-05
-9.85469e-05
-5.08858e-07
-1.62045e-05
-1.21136e-05
0.00010896
-1.42995e-05
0.0001402
-1.5741e-05
9.18864e-05
-9.34238e-06
-0.000106494
-1.01306e-05
-0.000205313
-3.02884e-05
-0.000148299
-4.27568e-05
2.10865e-06
-3.57783e-05
8.69652e-05
-2.27728e-05
8.49243e-05
-1.72227e-05
0.000105875
-1.7441e-05
0.000155056
-1.70886e-05
0.000106324
-2.25009e-05
-8.42188e-05
-1.92686e-05
-0.000221859
-2.39409e-05
-0.000206789
-3.94586e-05
-6.37204e-05
-3.88276e-05
1.1981e-05
-2.60436e-05
2.91102e-05
-1.86806e-05
0.000122813
-1.13646e-05
0.000137927
-7.8061e-06
4.94485e-06
-1.68249e-05
-0.000149317
-2.14175e-05
-0.000141014
-2.55547e-05
2.61379e-05
-2.2083e-05
3.13818e-05
-9.54022e-06
2.82799e-05
-6.12052e-06
2.43317e-05
-1.02653e-05
2.0231e-05
-5.74787e-06
-2.66296e-05
-1.18521e-05
-9.27477e-05
-1.14232e-05
-2.26502e-05
-7.5255e-06
2.91556e-05
-5.53692e-06
-1.53366e-05
-3.37509e-06
-5.01954e-05
-4.10718e-06
-3.49083e-05
-3.43012e-06
-1.08085e-05
-8.20342e-07
-2.44377e-05
1.34916e-07
-2.44986e-05
-3.58198e-07
-2.13837e-05
-5.41408e-08
-2.77125e-05
2.61495e-07
-2.64922e-05
9.05194e-07
-3.06774e-05
1.18627e-06
-2.60077e-05
1.64392e-06
-2.67332e-05
2.09727e-06
-2.40775e-05
2.00437e-06
-2.13722e-05
3.30969e-06
-3.51809e-05
5.13273e-06
-3.56451e-05
7.49002e-06
-1.81655e-05
7.53092e-06
-1.92483e-05
7.52362e-06
-1.49374e-05
9.76642e-06
-1.62076e-05
1.6434e-05
1.5342e-07
1.73049e-05
-2.9886e-06
1.7692e-05
4.25107e-05
2.01407e-05
3.67997e-06
1.14088e-05
-0.000157286
1.73587e-05
2.86549e-05
2.13451e-05
8.82988e-05
1.72481e-05
-0.000173441
1.24026e-05
-0.000133462
1.46991e-05
1.397e-05
2.32159e-05
0.000113289
3.23827e-05
0.000117852
4.09464e-05
3.98044e-05
4.7837e-05
4.69943e-05
3.5875e-05
-3.05099e-05
2.35e-05
-0.000198212
2.37188e-05
-0.000233192
2.07536e-05
-0.000140683
2.11982e-05
6.78767e-05
2.03292e-05
0.000144078
2.54609e-05
0.000110437
4.3303e-05
7.02612e-05
4.58783e-05
8.90652e-05
4.30453e-05
3.29574e-05
2.63424e-05
-6.79783e-05
1.82419e-05
-0.000161522
1.87666e-05
-0.000145975
2.13701e-05
6.87091e-06
3.19844e-05
9.68482e-05
3.16237e-05
0.00012037
2.26277e-05
6.47135e-05
8.61797e-06
-0.00010425
9.6048e-06
-0.000104179
1.89159e-06
4.95597e-05
-8.69315e-06
-8.94236e-05
-1.65077e-05
1.35056e-06
-1.36325e-05
5.52965e-05
-5.17461e-06
6.98551e-05
5.50061e-05
2.79696e-05
-6.94933e-05
3.13522e-05
-1.06501e-05
2.08032e-05
3.96522e-05
8.98124e-06
5.75986e-05
1.43519e-05
-6.34509e-05
5.16878e-06
5.21499e-05
1.13293e-05
1.78635e-06
8.40524e-06
-9.46902e-05
-1.71428e-05
1.118e-05
-2.00614e-05
0.000110474
-8.54974e-06
0.000126908
-6.02939e-06
8.96134e-05
-7.716e-06
-0.000104493
-1.24945e-05
-0.000200356
-2.57605e-05
-0.000136285
-4.41643e-05
2.28528e-05
-4.39666e-05
8.75426e-05
-2.65276e-05
6.75165e-05
-1.76029e-05
9.787e-05
-6.82439e-06
0.000144736
-1.01238e-05
0.000113487
-1.99245e-05
-7.362e-05
-1.85713e-05
-0.000221951
-1.48543e-05
-0.000208075
-1.84564e-05
-5.87574e-05
-2.76583e-05
2.54347e-05
-2.77938e-05
3.13161e-05
-1.37335e-05
0.000111129
8.20715e-06
0.000118406
-4.51921e-06
2.53469e-05
-1.02635e-05
-0.000141975
-8.69229e-07
-0.000146041
1.71104e-06
3.05703e-05
2.42966e-07
4.08078e-05
-8.4661e-06
4.87763e-05
-6.94005e-06
3.41977e-05
-6.98329e-06
3.02364e-05
-9.88267e-06
-4.47594e-06
-3.21883e-06
-8.94884e-05
-3.03115e-06
-3.54739e-06
-2.39914e-06
4.47014e-05
-1.36146e-06
4.96697e-06
-7.45166e-07
-3.27066e-05
3.00682e-07
-1.23642e-05
-5.83066e-07
1.20112e-05
-1.92528e-08
2.97816e-06
-2.64135e-07
1.07305e-06
-3.59267e-07
8.84326e-06
-1.04521e-07
-1.31179e-08
1.30861e-07
6.57428e-06
8.06195e-07
-1.7325e-06
1.27029e-06
5.5478e-06
1.48743e-06
5.39623e-07
1.90053e-06
4.8632e-06
2.34464e-06
3.54119e-06
3.36846e-06
-9.87103e-06
4.77938e-06
-1.37414e-05
4.71821e-06
5.87241e-06
4.64513e-06
3.46146e-06
6.7266e-06
3.38585e-06
6.03769e-06
5.50008e-06
-1.00408e-05
3.26576e-05
-1.15624e-05
1.46941e-05
3.04235e-07
3.86896e-05
2.10876e-06
1.54646e-05
7.5547e-06
-0.00015831
1.08628e-05
3.19141e-05
1.27604e-05
9.06564e-05
2.01949e-05
-0.000176356
1.42277e-05
-0.000125734
-6.91359e-06
4.23498e-05
1.41606e-05
9.47305e-05
3.81373e-05
9.65015e-05
3.90038e-05
4.10737e-05
2.76269e-05
6.09415e-05
1.96622e-05
-2.07813e-05
2.23823e-05
-0.000199987
2.19987e-05
-0.000231626
1.57229e-05
-0.000133929
1.23136e-05
7.55191e-05
1.89851e-05
0.000138377
2.9393e-05
0.000101414
5.13014e-05
5.26504e-05
5.55385e-05
8.53053e-05
4.03284e-05
5.04026e-05
2.53371e-05
-5.30034e-05
2.21289e-05
-0.000157905
1.78206e-05
-0.000141754
1.19528e-05
1.41083e-05
2.37775e-05
8.68198e-05
2.68149e-05
0.000120136
2.0146e-05
7.14306e-05
9.54844e-06
-9.41591e-05
3.65624e-06
-9.783e-05
-2.42418e-06
6.0535e-05
-1.2828e-05
-7.86522e-05
-3.07395e-05
2.09692e-05
-2.99217e-05
5.59566e-05
-1.14567e-05
5.22007e-05
4.37144e-05
1.18317e-05
-8.13813e-05
1.27456e-05
-1.17867e-05
4.10211e-06
4.79129e-05
1.83504e-06
5.96007e-05
2.04868e-06
-6.44326e-05
-2.69575e-06
5.63155e-05
1.2085e-05
-1.37078e-05
1.03438e-06
-8.47607e-05
-2.1244e-05
3.26584e-05
-2.45833e-05
0.000116436
-9.67712e-06
0.000113729
-6.14995e-06
8.80964e-05
-1.00502e-05
-0.000101084
-1.45145e-05
-0.000197758
-2.97131e-05
-0.000123237
-4.00833e-05
3.13037e-05
-4.32006e-05
9.07455e-05
-3.10515e-05
5.50078e-05
-1.99544e-05
8.7008e-05
-3.75812e-06
0.000128976
-5.13683e-06
0.000112129
-1.83749e-05
-6.14363e-05
-1.97612e-05
-0.000223074
-2.75227e-05
-0.000203168
-3.83308e-05
-4.92716e-05
-3.95794e-05
2.35054e-05
-3.61322e-05
2.6421e-05
-2.30319e-05
9.69531e-05
-1.16683e-05
0.000105716
-7.62597e-06
1.54368e-05
-1.29985e-05
-0.000138369
-2.49793e-05
-0.000138131
-2.87013e-05
2.7967e-05
-2.3746e-05
2.86826e-05
-1.23566e-05
2.7118e-05
-9.63745e-06
2.08243e-05
-1.05757e-05
2.03621e-05
-4.70423e-06
-2.65922e-05
-1.20083e-05
-9.1843e-05
-1.10575e-05
-2.19079e-05
-8.51908e-06
2.82161e-05
-5.8185e-06
-1.74488e-05
-4.51917e-06
-4.94402e-05
-5.63508e-06
-3.40724e-05
-3.35922e-06
-9.99645e-06
-1.26254e-06
-2.66617e-05
-3.32621e-07
-2.37135e-05
-3.79472e-07
-2.08486e-05
1.05252e-07
-2.66658e-05
2.7692e-07
-2.64689e-05
7.01426e-07
-2.95312e-05
1.18234e-06
-2.60513e-05
1.97576e-06
-2.52481e-05
1.94804e-06
-2.31136e-05
2.309e-06
-1.94682e-05
3.58063e-06
-3.52327e-05
4.96263e-06
-3.47408e-05
7.45592e-06
-1.86522e-05
8.05856e-06
-1.78137e-05
7.72507e-06
-1.44889e-05
9.29788e-06
-1.47447e-05
1.90526e-05
8.01774e-06
2.043e-05
-2.49681e-06
1.93275e-05
3.35971e-05
2.37606e-05
-1.04031e-06
1.34913e-05
-0.000151993
1.97947e-05
1.93771e-05
2.4107e-05
8.31972e-05
1.26944e-05
-0.000168416
1.00702e-05
-0.000125002
1.40208e-05
3.22152e-05
2.49065e-05
8.27388e-05
3.94754e-05
8.09451e-05
4.16357e-05
3.70641e-05
4.50655e-05
5.59999e-05
3.77082e-05
-1.5088e-05
2.43798e-05
-0.000188244
2.1556e-05
-0.000231508
1.22237e-05
-0.000125569
6.66992e-06
8.07834e-05
1.98083e-05
0.000125641
3.79045e-05
8.25203e-05
5.0404e-05
4.05177e-05
5.00233e-05
8.51553e-05
4.55267e-05
5.24912e-05
3.00981e-05
-3.8201e-05
2.01683e-05
-0.000148276
1.11071e-05
-0.000134002
1.11272e-05
1.36973e-05
2.33879e-05
7.38017e-05
2.24989e-05
0.000120863
1.7943e-05
7.42674e-05
3.06553e-06
-7.91423e-05
-3.29308e-07
-9.58482e-05
-2.42487e-06
6.14166e-05
-1.59209e-05
-6.58637e-05
-1.96342e-05
2.38699e-05
-2.4148e-05
5.92855e-05
-1.48309e-05
4.25469e-05
2.94299e-05
1.68745e-06
-8.36502e-05
-8.63487e-06
-8.70445e-08
-1.26186e-05
5.19354e-05
-7.44308e-06
5.37536e-05
-1.24581e-05
-5.96724e-05
-1.20116e-05
5.53723e-05
-1.4315e-06
-2.3775e-05
-1.01358e-05
-7.61525e-05
-2.5944e-05
4.78356e-05
-2.27201e-05
0.000113004
-3.32788e-06
9.57904e-05
-5.45684e-06
8.92604e-05
-1.21188e-05
-9.41735e-05
-1.18925e-05
-0.000197616
-2.50175e-05
-0.000109788
-3.77704e-05
4.30134e-05
-4.55216e-05
9.90001e-05
-3.45286e-05
4.57527e-05
-1.16711e-05
6.34646e-05
1.88384e-06
0.000117528
-3.61379e-06
0.000114769
-1.4947e-05
-4.94983e-05
-1.60941e-05
-0.00022144
-1.18066e-05
-0.000206992
-1.79981e-05
-4.21003e-05
-3.64335e-05
4.43522e-05
-4.09205e-05
3.23352e-05
-1.59538e-05
7.34238e-05
7.38189e-06
8.34127e-05
-5.21602e-06
3.29987e-05
-8.83375e-06
-0.000133462
-4.51931e-06
-0.000139515
-5.44373e-06
3.39076e-05
-4.40812e-06
3.36564e-05
-4.32459e-06
3.40468e-05
-4.70585e-06
3.01496e-05
-9.34529e-06
3.44956e-05
-1.08131e-05
-1.20041e-05
-5.99196e-06
-8.91138e-05
-5.73308e-06
-5.26061e-06
-3.05068e-06
3.67967e-05
-2.26022e-06
-4.05521e-07
-1.44344e-06
-3.35202e-05
-4.77477e-07
-1.7591e-05
-9.4595e-07
1.05254e-05
1.64878e-07
-6.66908e-06
-2.73698e-07
4.39258e-07
-5.86652e-07
2.31939e-06
2.10064e-09
-1.11681e-06
1.75335e-07
-1.55246e-06
8.01833e-07
-3.26237e-06
1.56259e-06
-2.94491e-06
1.76647e-06
-1.10722e-06
1.66548e-06
-1.22618e-06
1.87056e-06
2.34058e-06
3.21606e-06
-1.772e-05
5.78413e-06
-1.80738e-05
5.99525e-06
-4.49923e-07
5.23029e-06
1.98831e-07
5.57544e-06
1.20305e-06
5.13103e-06
7.76576e-07
-2.55298e-06
2.9063e-05
-2.6645e-06
9.58961e-06
2.039e-06
3.62734e-05
2.9784e-06
8.07613e-06
7.07708e-06
-0.000152765
1.18049e-05
1.92511e-05
1.58128e-05
8.17173e-05
1.71585e-05
-0.000168617
1.48596e-05
-0.000121381
7.50586e-07
5.04366e-05
1.56264e-05
6.81853e-05
3.92025e-05
5.861e-05
4.00344e-05
3.7493e-05
3.07777e-05
6.67018e-05
2.25038e-05
-5.12213e-06
2.1265e-05
-0.000186346
1.95413e-05
-0.000229346
1.23167e-05
-0.000118138
-1.42034e-06
9.45257e-05
7.88585e-06
0.000117078
3.88164e-05
5.2502e-05
5.3012e-05
2.42909e-05
4.74975e-05
8.9982e-05
3.96709e-05
6.12575e-05
2.64965e-05
-2.49721e-05
2.1241e-05
-0.000143843
1.03783e-05
-0.000122591
-4.19991e-07
2.66716e-05
2.17729e-05
5.19863e-05
2.87274e-05
0.000112571
1.88183e-05
8.61036e-05
6.33398e-06
-6.63313e-05
5.08639e-06
-9.4422e-05
2.6539e-06
6.17097e-05
-7.16784e-06
-5.73973e-05
-1.124e-05
2.839e-05
-1.79649e-05
6.58038e-05
-1.77582e-05
4.3023e-05
1.2155e-05
-6.58725e-06
-7.81891e-05
-1.84955e-05
1.28133e-05
-1.60123e-05
4.89918e-05
-8.23555e-06
4.60743e-05
-1.99189e-05
-4.74853e-05
-2.21662e-05
5.8302e-05
-2.5499e-06
-4.4579e-05
-1.70378e-05
-6.09529e-05
-2.68393e-05
5.86356e-05
-1.87505e-05
0.000103839
1.58239e-06
7.42056e-05
7.58099e-07
8.87384e-05
-6.34433e-06
-8.71019e-05
-1.55909e-05
-0.000187823
-2.42712e-05
-9.9513e-05
-3.10722e-05
5.15731e-05
-4.13423e-05
0.000110766
-3.47993e-05
3.81762e-05
-6.21319e-06
3.59993e-05
8.44074e-06
0.000101415
-7.09641e-06
0.000136147
-1.22239e-05
-4.49012e-05
-1.88096e-05
-0.000212821
-3.01088e-05
-0.000195911
-3.56636e-05
-3.71567e-05
-3.62783e-05
4.31541e-05
-3.55082e-05
3.04782e-05
-2.45816e-05
6.21668e-05
-1.55933e-05
7.38855e-05
-8.99789e-06
2.23365e-05
-1.25784e-05
-0.000130674
-2.57849e-05
-0.000128814
-2.89246e-05
3.27991e-05
-2.47866e-05
2.43134e-05
-1.45196e-05
1.73518e-05
-1.03764e-05
1.75345e-05
-8.8736e-06
2.48237e-05
-3.98586e-06
-2.92309e-05
-1.19026e-05
-8.72757e-05
-1.00335e-05
-2.13663e-05
-7.30633e-06
2.65249e-05
-5.48166e-06
-1.80059e-05
-5.8561e-06
-4.68727e-05
-6.35803e-06
-3.1086e-05
-3.7597e-06
-1.02033e-05
-2.37126e-06
-2.61056e-05
-9.58585e-07
-2.28033e-05
-5.69424e-07
-1.78429e-05
1.89329e-07
-2.60266e-05
6.9244e-07
-2.38224e-05
8.69534e-07
-2.84613e-05
1.13639e-06
-2.40831e-05
1.73867e-06
-2.44213e-05
3.40855e-06
-2.21926e-05
4.46713e-06
-1.9302e-05
3.97625e-06
-3.38482e-05
2.64353e-06
-3.46646e-05
4.56599e-06
-1.95579e-05
8.34436e-06
-1.94012e-05
9.51652e-06
-1.49039e-05
9.7707e-06
-1.34686e-05
1.86699e-05
7.97816e-06
1.93706e-05
-2.01961e-06
1.76127e-05
3.24233e-05
2.49478e-05
-7.93961e-06
1.64274e-05
-0.000146529
2.13214e-05
1.02658e-05
2.45912e-05
7.68259e-05
1.33047e-05
-0.000159419
1.28629e-05
-0.000121869
2.08418e-05
3.90687e-05
2.60548e-05
6.18808e-05
3.50426e-05
4.92362e-05
3.73784e-05
3.3808e-05
3.91338e-05
6.41707e-05
3.75664e-05
-5.13993e-06
2.76323e-05
-0.000177357
1.99472e-05
-0.000220853
1.70487e-05
-0.00011546
4.88615e-06
0.00010834
1.26136e-05
0.000109042
2.79765e-05
3.90382e-05
3.74639e-05
1.52477e-05
4.1646e-05
8.69389e-05
3.76962e-05
6.48899e-05
3.1267e-05
-1.85639e-05
2.31957e-05
-0.000136072
1.65269e-05
-0.000115785
7.53247e-06
3.45056e-05
1.64419e-05
4.45384e-05
2.59683e-05
0.000102957
2.42964e-05
8.92353e-05
1.53645e-05
-5.84005e-05
6.32928e-06
-8.48987e-05
1.91435e-07
6.93289e-05
-1.10455e-06
-5.56762e-05
-2.18004e-06
2.92287e-05
-2.00975e-05
8.53795e-05
-1.79999e-05
4.09675e-05
-5.86973e-06
6.58915e-07
-7.89418e-05
-7.09815e-06
2.08217e-05
-1.81361e-05
6.14977e-05
-1.61782e-05
4.46229e-05
-1.70962e-05
-4.68575e-05
-2.2638e-05
6.54854e-05
-1.83122e-05
-4.75027e-05
-2.20617e-05
-5.78184e-05
-2.89497e-05
6.75657e-05
-2.82881e-05
0.000104401
-4.99349e-06
5.12907e-05
-7.48174e-08
8.51098e-05
-8.27299e-06
-7.95282e-05
-1.15989e-05
-0.000185287
-1.99822e-05
-9.28461e-05
-3.29027e-05
6.42944e-05
-3.93791e-05
0.000114875
-3.66024e-05
3.50221e-05
-1.66446e-05
1.7143e-05
6.78147e-06
7.85611e-05
-3.51519e-06
0.000145046
-1.34226e-05
-3.45257e-05
-1.60998e-05
-0.000213774
-1.54666e-05
-0.000196065
-2.00755e-05
-3.18397e-05
-3.32085e-05
5.76141e-05
-3.65726e-05
3.50728e-05
-1.6583e-05
4.27445e-05
-1.69294e-06
5.94536e-05
-8.24325e-06
3.18761e-05
-8.05298e-06
-0.00013017
-7.39072e-06
-0.000127585
-8.02555e-06
3.74741e-05
-6.11686e-06
2.68914e-05
-4.88477e-06
2.1529e-05
-4.96922e-06
2.46529e-05
-9.03859e-06
3.66195e-05
-1.05099e-05
-1.73407e-05
-6.99377e-06
-8.49305e-05
-6.93309e-06
-9.04865e-06
-3.56253e-06
3.09762e-05
-2.60103e-06
-4.17783e-06
-3.42941e-06
-3.52305e-05
-2.52086e-06
-1.59154e-05
-8.63262e-07
2.55913e-06
1.04849e-06
-1.01956e-05
-4.0735e-07
-3.95567e-06
-6.84306e-07
2.04138e-06
-1.7538e-07
-7.28984e-06
-4.74842e-08
-2.1004e-06
8.69029e-07
-9.12919e-06
1.30338e-06
-3.64475e-06
1.68414e-06
-6.37974e-06
8.8559e-07
-2.29274e-06
1.22368e-06
-2.71892e-06
4.03736e-06
-2.0094e-05
6.32429e-06
-2.26155e-05
6.75233e-06
-4.21314e-06
6.73139e-06
-4.49455e-06
5.60507e-06
-7.91105e-07
4.79409e-06
-1.25555e-08
1.74418e-06
2.04096e-05
1.64968e-06
8.28362e-06
3.6168e-06
3.51446e-05
4.98044e-06
-8.94399e-07
8.32461e-06
-0.000147646
1.26177e-05
9.4178e-06
1.63076e-05
7.47026e-05
1.51476e-05
-0.000157171
1.55322e-05
-0.000121238
1.16083e-05
4.52422e-05
1.7724e-05
5.60227e-05
3.17914e-05
3.56768e-05
3.54174e-05
3.08537e-05
2.94529e-05
6.92936e-05
2.232e-05
3.55066e-06
2.16585e-05
-0.000176207
1.90423e-05
-0.000219795
1.34297e-05
-0.000109852
4.4478e-06
0.000115278
2.13951e-05
9.19806e-05
3.83443e-05
2.0633e-05
4.05967e-05
1.29256e-05