/*--------------------------------*- C++ -*----------------------------------*\
| =========                 |                                                 |
| \\      /  F ield         | OpenFOAM: The Open Source CFD Toolbox           |
|  \\    /   O peration     | Version:  2312                                  |
|   \\  /    A nd           | Website:  www.openfoam.com                      |
|    \\/     M anipulation  |                                                 |
\*---------------------------------------------------------------------------*/
FoamFile
{
    version     2.0;
    format      ascii;
    arch        "LSB;label=32;scalar=64";
    class       surfaceScalarField;
    location    "2";
    object      phi.air;
}
// * * * * * * * * * * * * * * * * * * * * * * * * * * * * * * * * * * * * * //

dimensions      [0 3 -1 0 0 0 0];

oriented        oriented;

internalField   nonuniform List<scalar> 
99400
(
-4.93757e-06
0.000525564
-5.20736e-06
0.000565755
-7.17993e-07
0.000582883
-1.46735e-05
0.000614883
-9.46592e-06
0.000635647
-2.21335e-05
0.000688219
-1.98649e-05
0.000695346
-1.05162e-05
0.000717883
-1.72172e-06
0.000761766
-1.30554e-05
0.000827216
-8.90325e-06
0.000868701
-1.85873e-05
0.000905908
-1.32587e-05
0.000923593
1.24338e-05
0.000948238
3.58201e-05
0.00099268
4.36098e-05
0.00105418
1.80422e-05
0.00113524
-1.21196e-06
0.00121027
-1.43675e-06
0.00125911
-1.13272e-05
0.00132313
-3.43781e-05
0.0013751
-2.87508e-05
0.00140164
-3.17268e-06
0.00145289
3.11238e-05
0.00151804
4.9573e-05
0.00160443
3.49665e-05
0.00168898
1.52077e-05
0.00180507
8.81357e-06
0.00189091
-1.24148e-05
0.00198831
-2.24058e-05
0.00201717
9.85915e-06
0.00212747
3.30089e-05
0.00221943
2.15591e-05
0.00233184
1.18152e-05
0.00240493
8.66322e-06
0.00244091
8.76092e-07
0.0025444
-1.15052e-05
0.00273931
-1.34839e-05
0.00273004
8.64702e-06
0.00304674
8.39813e-06
0.00298157
-1.08149e-06
0.00325934
-3.63536e-06
0.00326458
4.31478e-07
0.00350838
3.26253e-06
0.00360125
8.7528e-07
0.00376337
4.03222e-07
0.00391491
1.17007e-08
0.00409621
-1.86061e-07
0.0042918
2.07329e-07
0.00450111
2.34172e-07
0.0047131
6.2004e-07
0.00471893
6.83054e-07
0.00449822
7.62337e-07
0.00429256
5.46224e-07
0.00409627
1.6938e-07
0.00391165
2.00939e-06
0.00376381
4.01336e-06
0.00359363
2.56277e-06
0.00340528
2.46225e-06
0.00324146
-1.34711e-06
0.00313932
-3.45112e-06
0.0029572
-3.30173e-06
0.00288957
-8.04232e-06
0.00274847
-2.158e-05
0.0028001
-2.67709e-05
0.00253344
3.22545e-06
0.00256834
-3.47608e-06
0.00242785
-2.23841e-05
0.00237483
1.5653e-06
0.00222362
3.00607e-05
0.00212895
1.88712e-05
0.00202137
-2.92175e-06
0.00198783
-1.07528e-05
0.00188977
-2.72542e-05
0.00180954
-4.63712e-05
0.00171274
-3.6958e-05
0.00160159
-1.47864e-06
0.00151812
2.95377e-05
0.001451
4.4518e-05
0.00139789
2.06415e-05
0.00136388
7.42653e-06
0.00132255
1.20201e-05
0.00125769
-2.27806e-06
0.00121591
-2.8351e-05
0.00114606
-3.00634e-05
0.00105735
-1.92959e-05
0.00100636
-1.51009e-06
0.000948096
1.83725e-05
0.000912854
5.16554e-06
0.000897335
9.93244e-06
0.000865356
-1.4411e-06
0.00083212
-5.73055e-06
0.000771146
1.8551e-05
0.000716124
3.49463e-05
0.000683018
2.77283e-05
0.000670242
2.3762e-05
0.000642185
1.32479e-05
0.000621317
9.62468e-06
0.000592002
5.13503e-06
0.000564459
0.000543067
2.26893e-05
0.000597736
-1.12093e-06
0.000657835
-2.2725e-05
0.000675702
-2.48024e-05
0.000701752
-2.29417e-05
0.000728486
-6.17758e-05
0.000805364
-4.46358e-05
0.000806931
1.22217e-07
0.00079884
3.14346e-05
0.00086284
1.05651e-05
0.000954162
-2.21289e-05
0.00101276
-5.265e-05
0.00105168
-4.38154e-05
0.00105725
9.75008e-06
0.00107257
5.93164e-05
0.00112568
7.75026e-05
0.00121867
5.7837e-05
0.00131433
2.23083e-05
0.00140737
-8.5884e-06
0.00144797
-4.27151e-05
0.00152031
-7.14417e-05
0.0015888
-5.76142e-05
0.00160605
-8.91383e-06
0.00166696
4.17306e-05
0.0017293
7.01972e-05
0.00185097
6.79092e-05
0.00194683
3.57528e-05
0.0020658
1.10942e-07
0.00214694
-3.99878e-05
0.00225588
-3.95524e-05
0.00230136
1.01023e-05
0.00242629
4.30428e-05
0.00254088
2.10648e-05
0.0026313
2.69171e-06
0.00268509
9.35076e-06
0.00279182
2.88328e-06
0.0028869
-1.89511e-05
0.00306828
-1.78619e-05
0.00315105
9.52095e-06
0.00343473
1.14896e-05
0.00345173
-4.15929e-06
0.00367423
-6.12074e-06
0.00377552
-6.19887e-07
0.00401265
2.78465e-06
0.0041592
2.94497e-07
0.00434977
-8.18377e-08
0.00454386
-8.96939e-08
0.00475637
-1.58185e-07
0.00498538
2.29715e-07
0.00522567
3.17887e-07
0.00547503
7.36245e-07
0.00547652
8.41609e-07
0.00522499
9.7052e-07
0.00498364
1.01813e-06
0.00475758
9.06286e-07
0.00454087
2.58233e-06
0.00434934
4.2432e-06
0.00415092
3.70409e-06
0.00394919
4.19688e-06
0.00376303
-1.25784e-06
0.00361692
-2.20139e-06
0.00342807
3.92342e-06
0.00332936
-1.90631e-06
0.00315098
-3.01707e-05
0.00310182
-2.74036e-05
0.00292416
1.57692e-05
0.00292175
-9.83139e-07
0.00271902
-3.27152e-05
0.00269293
2.81078e-06
0.00254824
4.8248e-05
0.00242864
4.81104e-05
0.00230881
9.55021e-06
0.00225222
-2.38179e-05
0.0021461
-5.38903e-05
0.00206969
-7.00331e-05
0.00196198
-5.02416e-05
0.00184778
-9.75537e-07
0.00173093
5.45561e-05
0.00164749
8.17409e-05
0.00160407
6.2601e-05
0.00157656
2.76285e-05
0.00150773
-6.68697e-06
0.00144219
-4.10773e-05
0.00137948
-6.41205e-05
0.00132376
-5.63925e-05
0.00122531
-2.6287e-05
0.00114686
2.04566e-05
0.00106584
5.03792e-05
0.0010423
3.20545e-05
0.00104385
-1.32679e-06
0.00101091
-3.62001e-05
0.000974155
-2.82572e-05
0.000894786
2.50863e-05
0.000789887
6.10637e-05
0.000743011
5.82765e-05
0.000776579
6.02885e-05
0.000732495
4.18973e-05
0.000716165
1.91231e-05
0.000687233
9.09223e-06
0.000646494
0.000617134
-8.93643e-06
0.00068205
-2.21357e-05
0.000758777
-2.40529e-05
0.000783219
-3.00143e-05
0.000787666
1.92169e-06
0.000809436
-1.38594e-05
0.000898148
-3.41714e-05
0.000896834
-7.28967e-06
0.000879015
1.1751e-05
0.000940981
-4.84729e-07
0.00108168
-2.49145e-05
0.00117714
-4.5341e-05
0.00120632
-2.65248e-05
0.00116654
1.47974e-05
0.00115739
4.91199e-05
0.0012335
5.29675e-05
0.00135318
3.55344e-05
0.00148041
9.67432e-06
0.00160491
-1.5856e-05
0.00169342
-4.49509e-05
0.00177161
-6.42759e-05
0.00180774
-4.71597e-05
0.00179644
-9.38053e-06
0.0018264
3.19295e-05
0.0019106
4.75204e-05
0.00205626
4.00121e-05
0.0022038
1.90842e-05
0.00237163
-2.8248e-06
0.00251022
-2.68038e-05
0.00262335
-3.05535e-05
0.00263574
1.6038e-06
0.00271516
2.47013e-05
0.00286307
1.57089e-05
0.00305431
8.34285e-06
0.00316044
-1.1209e-06
0.00324301
-7.20325e-06
0.00340631
-1.29583e-05
0.00360521
-1.21872e-05
0.0036922
3.05136e-06
0.00395329
3.54214e-06
0.00404657
-3.83194e-06
0.00433096
-5.6044e-06
0.00444011
-1.17474e-06
0.00469677
2.15895e-06
0.00488314
2.21711e-07
0.00511913
7.60797e-08
0.00534401
-5.14324e-08
0.00559437
-2.86328e-07
0.00586306
2.24134e-07
0.00614604
3.27111e-07
0.00643882
8.65134e-07
0.00644236
9.68897e-07
0.00614451
1.20568e-06
0.00586303
1.0687e-06
0.00559431
6.76427e-07
0.00534032
3.1607e-06
0.00511031
5.63113e-06
0.00487817
4.70015e-06
0.00464182
4.74156e-06
0.00442449
3.93174e-06
0.00424593
2.81813e-06
0.00403142
-2.29373e-06
0.00387558
-4.70699e-06
0.00370736
-1.27326e-05
0.00364953
-1.69292e-05
0.00340104
8.62305e-06
0.00329751
1.44427e-06
0.00317877
-1.76425e-05
0.00311757
1.09329e-05
0.00286218
3.87749e-05
0.00272226
3.40909e-05
0.00264329
1.17437e-05
0.00261468
-9.21834e-06
0.00250728
-3.07004e-05
0.00238402
-4.58508e-05
0.00223908
-3.79146e-05
0.00206312
4.67283e-06
0.00191548
4.88008e-05
0.00180961
7.42313e-05
0.00177622
5.91581e-05
0.00178368
3.28442e-05
0.00175111
1.00265e-05
0.00169126
-1.61969e-05
0.00159923
-3.74303e-05
0.00149644
-4.16621e-05
0.00136593
-2.11603e-05
0.00126866
1.36848e-05
0.0011778
3.87849e-05
0.00113948
3.25478e-05
0.00116564
1.07098e-05
0.00117986
-1.45911e-05
0.001124
-2.08917e-05
0.00100192
6.09128e-06
0.000864172
2.69446e-05
0.000845963
1.29248e-05
0.00087695
4.13656e-05
0.000794587
3.61226e-05
0.000798361
2.61597e-05
0.000792918
1.11368e-05
0.000766895
0.000717256
-1.80846e-05
0.000700051
-6.60862e-06
0.000749969
-1.06256e-05
0.000784456
-2.75147e-05
0.000795753
-3.37044e-06
0.00078284
2.56266e-06
0.000905379
-2.04425e-05
0.000910733
-2.28134e-06
0.000875191
1.19134e-05
0.000941976
-2.94132e-06
0.00112069
-2.02382e-05
0.00122196
-4.12252e-05
0.00123011
-2.88223e-05
0.0011514
1.31666e-05
0.00113137
4.82298e-05
0.00121577
5.06761e-05
0.00135809
2.07473e-05
0.00149383
-1.07871e-06
0.00162665
-1.65097e-05
0.00171263
-4.21177e-05
0.00179751
-6.50462e-05
0.00181965
-5.25235e-05
0.00177608
-1.27162e-05
0.00180063
2.92449e-05
0.00189472
4.35467e-05
0.00205118
3.04665e-05
0.00219487
1.93781e-05
0.00237721
-3.47205e-07
0.00251552
-3.26744e-05
0.00263971
-3.74931e-05
0.00262756
-2.3774e-06
0.00267688
2.0393e-05
0.00282766
1.67861e-05
0.00305103
1.34895e-05
0.00315726
-6.9839e-07
0.00321243
-1.20287e-05
0.00337686
-1.34381e-05
0.00360142
-1.21885e-05
0.00366268
4.23587e-06
0.00391885
5.05618e-06
0.00402003
-4.79428e-06
0.00430269
-6.03347e-06
0.00441508
-1.46621e-06
0.00465102
2.00855e-06
0.00484837
9.14797e-09
0.00508471
-2.93673e-07
0.00530967
-1.93402e-07
0.00555934
-2.35073e-07
0.00583042
2.03931e-07
0.00610804
3.01121e-07
0.00640254
8.31054e-07
0.00640125
1.05935e-06
0.00610905
1.33295e-06
0.00582586
1.38528e-06
0.00556115
1.20915e-06
0.00530784
3.47674e-06
0.00507304
5.50884e-06
0.00484009
4.43769e-06
0.0046126
4.6497e-06
0.00439732
4.06292e-06
0.00422815
2.29625e-06
0.00400603
-2.02933e-06
0.00385966
-2.0962e-06
0.00369771
-1.18681e-05
0.00364274
-1.82163e-05
0.00337889
1.10681e-05
0.00325623
2.75968e-06
0.00316729
-1.58474e-05
0.00311433
1.42545e-05
0.00281999
4.45611e-05
0.00268821
3.85472e-05
0.00263047
1.00258e-05
0.00262668
-1.04438e-05
0.00251259
-2.06587e-05
0.00238569
-3.97941e-05
0.00223524
-3.40432e-05
0.00206355
7.36837e-06
0.00188516
5.25086e-05
0.00179242
7.4025e-05
0.0017576
5.32013e-05
0.0017903
3.36145e-05
0.00179865
1.66045e-05
0.00171334
1.47312e-07
0.0016488
-3.14652e-05
0.00151706
-3.98446e-05
0.00137554
-1.87025e-05
0.00125418
1.53709e-05
0.00116223
3.98228e-05
0.00112098
3.44693e-05
0.00117017
1.84991e-05
0.00120595
1.60811e-06
0.00116011
-2.20098e-05
0.00100841
9.11982e-06
0.000849269
3.13812e-05
0.000837341
7.01598e-06
0.000889044
3.16701e-05
0.000766263
4.0935e-05
0.000786747
2.58459e-05
0.000802847
1.05965e-05
0.000785239
0.000744094
-4.39178e-06
0.000730293
-2.07228e-07
0.000761308
-5.00175e-07
0.000806563
-3.53967e-06
0.000829952
8.82446e-06
0.000794359
1.20294e-05
0.000928876
2.99456e-06
0.000942942
7.54093e-06
0.000897321
7.78989e-06
0.000968982
-6.15803e-06
0.00115056
-2.18317e-05
0.0012599
-3.4031e-05
0.00126963
-1.87372e-05
0.0011694
1.02254e-05
0.0011335
3.44812e-05
0.00123204
2.30434e-05
0.00139416
4.26204e-06
0.00156076
-1.01938e-05
0.00167739
-1.78806e-05
0.00176843
-3.81005e-05
0.00186904
-5.58611e-05
0.00189683
-4.3369e-05
0.00182257
-1.41198e-05
0.00182062
1.31135e-05
0.00192348
1.51964e-05
0.00210286
9.96958e-06
0.00229746
7.28563e-06
0.00245302
-3.66616e-06
0.0026318
-2.06466e-05
0.00276625
-2.21982e-05
0.00275706
-1.03801e-05
0.00275671
5.09694e-06
0.00293188
3.23151e-06
0.00320705
7.41351e-07
0.00334682
-5.70937e-06
0.00344794
-9.14801e-06
0.00362617
-1.10206e-05
0.00382085
-8.42973e-06
0.00392277
-2.95126e-06
0.00412766
-2.09002e-06
0.00430555
-5.60925e-06
0.00460057
-5.80555e-06
0.00473265
-1.94191e-06
0.00497393
1.71513e-07
0.0051963
-1.00329e-06
0.00545878
-2.79044e-07
0.00570358
3.69787e-09
0.00597159
-3.47722e-07
0.00626095
1.34772e-07
0.00656054
2.97072e-07
0.00687599
9.25848e-07
0.00687616
1.08565e-06
0.00656059
1.46371e-06
0.00625823
1.52976e-06
0.00597209
1.24183e-06
0.00569958
3.47259e-06
0.0054455
5.9437e-06
0.00519656
5.7539e-06
0.00495154
5.67652e-06
0.00472031
6.41326e-06
0.00452183
6.67069e-06
0.00429902
1.57692e-06
0.00412957
1.90775e-06
0.00395116
-8.07878e-07
0.00386184
-4.27737e-06
0.00360651
8.69339e-06
0.00337209
7.58087e-06
0.0033508
-2.40636e-06
0.00326451
1.89213e-05
0.00290823
2.9128e-05
0.0027703
2.72992e-05
0.00276261
1.24465e-05
0.00275248
4.9377e-08
0.00263228
-1.04684e-06
0.00246351
-9.20235e-06
0.00233149
-1.27461e-05
0.00212666
1.21517e-05
0.00191266
4.47503e-05
0.00180877
6.34791e-05
0.00178775
5.12737e-05
0.00186731
3.07824e-05
0.00184744
2.2255e-05
0.00177111
1.08067e-05
0.00168496
-6.21518e-06
0.00157518
-1.63496e-05
0.00142897
-1.07507e-05
0.00128339
1.39983e-05
0.00116366
3.38293e-05
0.00112822
3.57139e-05
0.00120113
2.50469e-05
0.00124562
7.20092e-06
0.0011947
-2.47958e-06
0.00105653
5.90505e-06
0.00086265
1.89042e-05
0.000850635
6.40831e-06
0.000921591
2.44711e-05
0.000770421
2.81805e-05
0.000800201
1.92745e-05
0.000830852
6.67063e-06
0.00081636
0.000766815
6.81678e-06
0.000723471
1.39909e-05
0.000747299
1.53321e-05
0.000798813
7.13807e-06
0.000832088
1.44453e-05
0.000786853
1.52974e-05
0.000923498
6.42115e-06
0.000941954
1.13202e-05
0.000895931
9.31346e-06
0.000977641
-7.59564e-06
0.00113813
-2.23621e-05
0.00123946
-2.94069e-05
0.00126111
-1.80049e-05
0.00115078
8.87282e-06
0.00111594
2.5119e-05
0.00119596
1.00904e-05
0.0014008
-1.211e-05
0.0015636
-1.53726e-05
0.0016697
-1.60311e-05
0.00175903
-2.97342e-05
0.00187156
-4.86963e-05
0.00189832
-4.31692e-05
0.00180456
-1.59033e-05
0.00179422
8.10444e-06
0.00189365
8.3105e-06
0.00209531
4.37423e-07
0.00226784
4.60395e-06
0.00243139
-4.80179e-06
0.00261919
-1.35002e-05
0.00275569
-2.05686e-05
0.00271104
-1.0579e-05
0.002731
4.81939e-06
0.00287833
7.81014e-06
0.00315681
5.85677e-06
0.00328896
-9.6206e-06
0.00337099
-1.28433e-05
0.00355218
-8.75844e-06
0.00375453
-8.76249e-06
0.00382306
-1.35711e-06
0.00404602
-1.50771e-06
0.00419847
-4.80868e-06
0.00450675
-4.7497e-06
0.00461767
-1.48947e-06
0.00485396
3.90542e-07
0.0050648
-7.83202e-07
0.00532495
-3.91845e-07
0.00555069
-1.17778e-07
0.0058197
-3.64592e-07
0.00609817
1.01187e-07
0.00639416
2.50358e-07
0.00669607
9.05988e-07
0.00670089
1.11366e-06
0.00638875
1.525e-06
0.00609892
1.67788e-06
0.00581544
1.69764e-06
0.00555657
3.5398e-06
0.00530235
5.58378e-06
0.00506186
4.91195e-06
0.00482617
4.61335e-06
0.00459994
7.01205e-06
0.0044178
7.01122e-06
0.00419206
-2.74949e-06
0.00402704
-2.46667e-06
0.00385776
1.27574e-07
0.00380675
-5.88152e-06
0.00352521
9.6144e-06
0.00331961
8.00627e-06
0.00329858
-4.0952e-08
0.00323266
2.01353e-05
0.00286003
2.72254e-05
0.00274721
1.7534e-05
0.00271513
1.2169e-05
0.00273535
3.64566e-06
0.00261775
8.4046e-06
0.00243864
-1.26281e-06
0.00231452
-7.5426e-06
0.0021209
1.48231e-05
0.00188696
4.33009e-05
0.0017806
5.89274e-05
0.00176279
4.28117e-05
0.00186376
2.36051e-05
0.00183474
2.28762e-05
0.00176159
2.56011e-05
0.00166489
1.28044e-05
0.00157608
-8.22382e-06
0.00142941
-3.96347e-06
0.00127714
1.41468e-05
0.00114137
3.21816e-05
0.00111194
3.06441e-05
0.00119299
2.71688e-05
0.00124468
1.89565e-05
0.00119726
-1.78629e-07
0.00106761
4.73844e-06
0.000858931
1.63075e-05
0.000842559
8.30985e-06
0.000933812
1.86838e-05
0.000758728
1.46218e-05
0.000798184
6.81052e-06
0.000830044
3.71936e-06
0.000818324
0.000750143
2.20774e-05
0.000705008
2.93704e-05
0.000749869
2.67673e-05
0.000811753
1.82599e-05
0.000855706
2.12829e-05
0.000798912
1.28741e-05
0.000937013
1.27854e-05
0.000949959
1.87751e-05
0.000895392
2.96645e-06
0.00100762
-7.17209e-06
0.00118201
-1.67418e-05
0.00126467
-2.39271e-05
0.00128085
-1.40985e-05
0.00114992
6.84626e-07
0.00111029
2.04234e-06
0.00120748
-1.0349e-05
0.0014273
-2.10796e-05
0.00159073
-1.89968e-05
0.00167366
-1.66639e-05
0.00176583
-2.90474e-05
0.00188928
-3.94307e-05
0.00192907
-3.71274e-05
0.00182198
-1.78315e-05
0.00179151
-2.47392e-06
0.00190061
-1.17087e-05
0.0021242
-1.39842e-05
0.00231726
-7.96067e-06
0.00244728
-1.0569e-05
0.00265376
-1.4389e-05
0.00278993
-1.43859e-05
0.00278749
-1.3873e-05
0.00276493
-6.50101e-06
0.00292702
-6.59019e-06
0.00323295
-6.99187e-06
0.00338602
-9.43025e-06
0.00352214
-9.699e-06
0.0036923
-1.02336e-05
0.00387623
-6.6914e-06
0.00399488
-6.74829e-06
0.00416012
-5.62329e-06
0.00438976
-6.33978e-06
0.00467645
-5.08619e-06
0.00482618
-2.4939e-06
0.00505401
-1.62097e-06
0.00529395
-2.11778e-06
0.00556804
-5.51642e-07
0.00582217
-2.90953e-08
0.00609668
-3.56918e-07
0.00639313
8.08619e-09
0.00669809
2.84387e-07
0.00702073
9.06996e-07
0.00701991
1.19523e-06
0.00669812
1.59754e-06
0.00638947
1.95817e-06
0.0060968
1.87368e-06
0.00581873
3.52918e-06
0.00555104
5.49532e-06
0.00529817
6.1387e-06
0.00505416
6.19077e-06
0.00481968
7.19961e-06
0.00460847
8.36302e-06
0.00438813
5.84498e-06
0.00421251
6.91426e-06
0.0040205
7.0086e-06
0.00390665
6.46305e-06
0.00366569
9.73389e-06
0.00337184
1.2635e-05
0.00338496
9.05252e-06
0.00329166
1.94045e-05
0.00289498
2.01111e-05
0.00278172
1.83692e-05
0.0027979
1.69324e-05
0.00276836
1.53824e-05
0.00265053
2.11165e-05
0.00245988
1.87935e-05
0.00234999
9.5709e-06
0.00215402
1.92854e-05
0.00190111
3.72346e-05
0.00177854
4.6321e-05
0.00177024
3.72381e-05
0.00189487
2.27789e-05
0.00187827
2.34564e-05
0.00177055
3.30331e-05
0.00167854
2.36e-05
0.00159189
1.34721e-05
0.00146138
6.89319e-06
0.00129325
1.5751e-05
0.00115552
2.64915e-05
0.00110923
2.93139e-05
0.00120302
3.17799e-05
0.00124151
2.24557e-05
0.00120784
8.83354e-06
0.00108428
7.29978e-06
0.000871705
1.53779e-05
0.000841987
5.30004e-06
0.000945047
7.61043e-06
0.000764129
6.21728e-06
0.000812109
1.93378e-06
0.000831761
-1.46823e-06
0.000820359
0.000767747
3.02401e-05
0.000661904
3.09822e-05
0.000742457
2.32903e-05
0.000813959
1.40525e-05
0.00085895
2.08323e-05
0.000792322
1.09155e-05
0.000936134
1.50585e-05
0.000942297
1.71935e-05
0.000887579
-4.34619e-06
0.0010154
-1.43501e-05
0.00120109
-1.24271e-05
0.00127781
-1.55761e-05
0.00128428
-1.15653e-05
0.00114463
-4.9585e-06
0.00110392
-5.84847e-06
0.00121809
-2.36769e-05
0.00142951
-3.13741e-05
0.00159294
-2.20833e-05
0.00166279
-1.68442e-05
0.00175705
-1.7055e-05
0.00188786
-2.72408e-05
0.00191236
-2.96118e-05
0.00182088
-1.82494e-05
0.00177374
-8.62983e-06
0.00187657
-1.31169e-05
0.00212152
-2.06621e-05
0.0022989
-1.60453e-05
0.00243257
-1.18578e-05
0.0026353
-4.56129e-06
0.00276895
-1.27564e-05
0.00274947
-1.2132e-05
0.00275546
-3.66743e-06
0.00289114
-3.53132e-06
0.00318803
-4.11264e-06
0.00333517
-9.40246e-06
0.0034612
-8.97198e-06
0.00362402
-8.71532e-06
0.00380693
-8.74517e-06
0.00390169
-4.9359e-06
0.00409254
-5.35304e-06
0.0042832
-4.70209e-06
0.00459469
-4.05984e-06
0.00470871
-1.8169e-06
0.00494093
-9.26494e-07
0.00516843
-1.48509e-06
0.0054336
-4.31832e-07
0.00567017
-1.18229e-07
0.00593929
-3.8042e-07
0.00623135
-1.82452e-08
0.00652474
2.32224e-07
0.00684207
9.07415e-07
0.00683805
1.24625e-06
0.00652798
1.61175e-06
0.00622452
1.9537e-06
0.00594261
2.0246e-06
0.0056702
3.57662e-06
0.0054137
5.41928e-06
0.0051629
5.82617e-06
0.00492828
5.59922e-06
0.00469755
7.37264e-06
0.00450143
7.85582e-06
0.00428101
3.66867e-07
0.00411595
-3.06975e-07
0.00392921
5.55913e-06
0.00385202
3.58699e-06
0.00359252
9.30698e-06
0.00333886
1.17189e-05
0.00334045
1.01582e-05
0.00326676
1.99191e-05
0.00285771
2.01063e-05
0.00277127
7.61853e-06
0.00276531
1.602e-05
0.00274614
2.44964e-05
0.00262631
2.85209e-05
0.00244334
2.19938e-05
0.00234277
1.31167e-05
0.00215323
2.01816e-05
0.00188957
3.08585e-05
0.00176146
3.55288e-05
0.00176538
2.66154e-05
0.00187394
2.08241e-05
0.00187764
2.46534e-05
0.0017633
4.07447e-05
0.00163477
3.68933e-05
0.00158731
2.04926e-05
0.00146341
1.26846e-05
0.00130358
1.82867e-05
0.00114815
2.52457e-05
0.00110193
2.15834e-05
0.00119853
2.68239e-05
0.00122524
2.38257e-05
0.00119383
1.30884e-05
0.00109539
9.65831e-06
0.000882306
1.11456e-05
0.000837923
1.74815e-06
0.000926016
1.70312e-06
0.00076491
-1.25908e-05
0.000819739
-1.54695e-05
0.000826081
-3.34093e-06
0.00080363
0.000764265
2.23784e-05
0.000639657
2.4652e-05
0.000738623
1.42154e-05
0.000824987
9.60378e-06
0.00087131
1.20577e-05
0.000795682
3.62018e-06
0.000948808
1.58923e-05
0.000940401
1.14998e-05
0.00090169
-9.06562e-06
0.00104227
-1.87648e-05
0.00119444
-1.23902e-05
0.00126044
-1.29268e-05
0.00127409
-1.11039e-05
0.00114663
-9.6346e-06
0.0011164
-1.84774e-05
0.00124456
-3.00693e-05
0.00145505
-3.46548e-05
0.00159521
-2.39757e-05
0.00164866
-1.96446e-05
0.00175249
-1.29878e-05
0.00187704
-1.88306e-05
0.0019326
-2.58087e-05
0.00183654
-1.95555e-05
0.00178675
-1.65256e-05
0.00189604
-2.42375e-05
0.00214042
-2.76561e-05
0.00232791
-2.40293e-05
0.00244247
-1.65902e-05
0.0026371
-9.2141e-06
0.00276877
-9.60727e-06
0.00280141
-1.30952e-05
0.00277359
-1.31049e-05
0.00292161
-1.42814e-05
0.00323825
-1.30606e-05
0.00339154
-1.07924e-05
0.00354637
-9.31501e-06
0.00371097
-1.02405e-05
0.00389159
-6.24895e-06
0.00402751
-8.90738e-06
0.00416439
-7.48429e-06
0.00442398
-6.94761e-06
0.00469804
-4.69641e-06
0.00486487
-3.14807e-06
0.00507918
-3.03796e-06
0.00533346
-2.48199e-06
0.0056106
-8.12888e-07
0.00587007
-1.99518e-07
0.00614862
-4.13831e-07
0.00644858
4.22988e-08
0.00675526
2.49943e-07
0.0070812
8.53319e-07
0.00707905
1.23555e-06
0.006756
1.82837e-06
0.00644495
2.00793e-06
0.0061503
2.28064e-06
0.0058698
3.61595e-06
0.00559355
5.29153e-06
0.00533736
6.62595e-06
0.00509822
6.94693e-06
0.00486286
7.54138e-06
0.00464442
8.78973e-06
0.004428
8.66133e-06
0.00424777
9.44577e-06
0.00404615
1.08042e-05
0.00390849
1.34139e-05
0.0036841
1.07948e-05
0.00337109
1.57891e-05
0.00338342
1.6327e-05
0.00329053
1.76314e-05
0.00288447
1.52283e-05
0.00278882
1.19231e-05
0.00281641
1.98759e-05
0.00274665
3.05826e-05
0.00262418
3.39975e-05
0.00245471
3.1501e-05
0.00235899
2.33259e-05
0.00217406
2.23951e-05
0.00190371
2.8118e-05
0.00177634
2.59885e-05
0.00177559
1.88813e-05
0.00188404
2.17232e-05
0.00186663
3.18442e-05
0.00175996
4.4309e-05
0.00161887
4.17817e-05
0.00159339
3.16163e-05
0.00148539
2.08409e-05
0.0013197
1.91273e-05
0.00115372
1.96102e-05
0.00111148
1.91831e-05
0.0012028
2.48125e-05
0.00122567
2.27911e-05
0.00120033
1.55881e-05
0.00110948
5.30675e-06
0.000892433
3.89952e-06
0.000848287
8.72651e-07
0.000947815
-8.03312e-06
0.000780827
-1.26712e-05
0.000833628
-1.82439e-05
0.000841928
-9.09513e-06
0.00079739
0.000749898
1.65137e-05
0.000628844
1.26459e-05
0.000735058
1.70311e-06
0.000828944
2.84563e-06
0.000876874
2.42907e-06
0.000797811
5.33944e-08
0.000954141
1.07682e-05
0.000932397
7.56264e-06
0.000906416
-1.58504e-05
0.00107131
-1.99667e-05
0.00119628
-8.39978e-06
0.00123953
-1.0846e-05
0.00127854
-1.232e-05
0.0011473
-9.86989e-06
0.00111212
-1.95667e-05
0.00125315
-3.26371e-05
0.00147553
-4.04112e-05
0.00159672
-3.05273e-05
0.00162855
-1.48905e-05
0.00174209
-7.18528e-06
0.00185654
-1.25714e-05
0.00195403
-2.31606e-05
0.00184489
-1.83678e-05
0.00177854
-1.39882e-05
0.00189064
-2.13111e-05
0.00214143
-3.20219e-05
0.00232443
-3.12227e-05
0.00243507
-1.6539e-05
0.00261376
-1.81777e-06
0.00274619
-9.49879e-06
0.00277749
-1.11426e-05
0.00277023
-9.19744e-06
0.00290246
-1.128e-05
0.00320449
-9.88929e-06
0.00335376
-8.52847e-06
0.00349702
-7.69931e-06
0.0036552
-9.58215e-06
0.00383495
-8.90119e-06
0.00394442
-7.30719e-06
0.00411464
-7.5553e-06
0.00433302
-5.15768e-06
0.00463145
-4.207e-06
0.00476013
-2.40935e-06
0.004992
-2.12885e-06
0.00522335
-1.82136e-06
0.00549896
-5.05806e-07
0.00573643
-2.41249e-07
0.00601452
-4.86098e-07
0.00630558
2.50002e-08
0.0066068
2.279e-07
0.00692308
8.63878e-07
0.00692347
1.3888e-06
0.00660506
1.85679e-06
0.0063027
1.92575e-06
0.00601325
2.08922e-06
0.00574047
3.58232e-06
0.00547422
5.6753e-06
0.00522282
6.58787e-06
0.00498542
6.33973e-06
0.00475266
7.05911e-06
0.00454812
7.46562e-06
0.00433136
4.88165e-06
0.00417372
4.45283e-06
0.00396699
8.50063e-06
0.00386701
8.54774e-06
0.00362095
9.55137e-06
0.00335077
1.41032e-05
0.00334969
1.60027e-05
0.00327271
1.7606e-05
0.00287608
1.65418e-05
0.00278316
6.88677e-06
0.00279884
1.84419e-05
0.00272697
3.46155e-05
0.00260016
3.68323e-05
0.00244487
3.17019e-05
0.00235828
2.26415e-05
0.00217426
2.11503e-05
0.00190155
2.52368e-05
0.00177147
2.0433e-05
0.00178107
1.02358e-05
0.00189961
1.4202e-05
0.00185684
3.54157e-05
0.00172887
4.88884e-05
0.00162027
4.4322e-05
0.00160322
3.48845e-05
0.00148945
2.28654e-05
0.00133286
1.98858e-05
0.0011636
1.63408e-05
0.00111653
9.55215e-06
0.00120025
2.64468e-05
0.00120754
2.62668e-05
0.00120865
1.46809e-05
0.00110334
3.41909e-06
0.000902112
4.1296e-06
0.000847107
2.43129e-06
0.000967304
-5.64004e-06
0.000798437
-1.23841e-05
0.000839536
-1.71123e-05
0.000849295
-1.39387e-05
0.000789732
0.000733344
5.05764e-06
0.00063125
-2.32629e-06
0.000744148
-3.44498e-06
0.000828492
1.17296e-06
0.000870367
-6.56316e-06
0.000802513
-1.11074e-05
0.000954333
9.07159e-06
0.000918733
-3.64506e-06
0.000914943
-1.88461e-05
0.00108037
-1.80175e-05
0.00119755
-4.34493e-06
0.00123546
-7.53487e-06
0.00128491
-9.17577e-06
0.00115288
-1.35861e-05
0.00111382
-2.15276e-05
0.00125282
-3.20681e-05
0.00147521
-4.16547e-05
0.00159896
-3.08562e-05
0.00163128
-9.02527e-06
0.001714
9.00833e-07
0.00185693
-1.24372e-05
0.00193223
-1.81775e-05
0.00185502
-1.89876e-05
0.00176745
-2.12089e-05
0.00189517
-2.78088e-05
0.00215431
-3.37664e-05
0.00234399
-3.30405e-05
0.0024446
-2.00348e-05
0.00260445
-8.56621e-06
0.00273801
-8.54261e-06
0.00280772
-1.22007e-05
0.00278156
-1.67521e-05
0.00292487
-1.88139e-05
0.00324146
-1.66639e-05
0.00338865
-1.13537e-05
0.00354492
-9.02787e-06
0.00371393
-9.98541e-06
0.00389836
-6.18213e-06
0.00403692
-1.02199e-05
0.00416589
-8.34212e-06
0.00443963
-6.76892e-06
0.00470197
-4.53208e-06
0.00488207
-4.13727e-06
0.00508983
-3.97197e-06
0.00535133
-2.85763e-06
0.00562916
-1.30837e-06
0.00589024
-5.67034e-07
0.00617307
-5.27438e-07
0.00647519
7.4934e-08
0.00678153
4.42837e-07
0.0071097
8.80929e-07
0.00710661
1.31965e-06
0.00678169
1.84928e-06
0.00647026
2.61776e-06
0.00617379
3.23951e-06
0.00589256
3.81502e-06
0.00561043
4.40664e-06
0.00535252
5.82734e-06
0.00511634
7.48513e-06
0.00488059
8.17848e-06
0.00465883
8.95886e-06
0.00444545
1.08824e-05
0.00426115
1.16937e-05
0.00405676
1.18813e-05
0.00390717
1.6829e-05
0.00368876
1.23487e-05
0.00337336
1.77599e-05
0.00337452
1.99673e-05
0.00328357
1.6298e-05
0.0028955
1.46927e-05
0.00279219
1.35295e-05
0.00282301
2.17812e-05
0.00272148
3.51194e-05
0.00259085
3.75308e-05
0.0024504
3.4666e-05
0.00236797
2.94493e-05
0.00218956
2.54916e-05
0.00191365
2.32517e-05
0.00177056
2.00636e-05
0.0017872
7.924e-06
0.00190924
1.4291e-05
0.00185776
3.20538e-05
0.00169949
4.45829e-05
0.00160781
4.42768e-05
0.00159714
3.58096e-05
0.00149501
2.49905e-05
0.00134491
2.14598e-05
0.00117068
1.70253e-05
0.00112184
1.01283e-05
0.00121928
2.10907e-05
0.00118745
2.66904e-05
0.00119712
2.01259e-05
0.00110293
1.08937e-05
0.000919171
4.66727e-06
0.000851318
-7.21696e-07
0.000961181
-6.20014e-06
0.000801701
-6.7955e-06
0.000846181
-1.8904e-05
0.000849638
-1.82766e-05
0.000789456
0.000714946
3.88901e-06
0.000630358
-2.03499e-06
0.000754901
-1.17795e-05
0.000831482
-7.77111e-06
0.000863322
-9.43713e-06
0.000806002
-1.55334e-05
0.000953035
-4.44932e-06
0.000895346
-1.05137e-05
0.000926202
-2.54739e-05
0.00108013
-2.42912e-05
0.00119026
-3.8545e-06
0.00120985
-4.12425e-06
0.00127549
-8.7638e-06
0.00116268
-1.27988e-05
0.001125
-2.12975e-05
0.00127435
-3.30179e-05
0.00149101
-4.18951e-05
0.00162467
-3.46784e-05
0.00162284
-1.35636e-05
0.00168217
4.54804e-06
0.0018363
-8.01729e-06
0.00195776
-1.72511e-05
0.00186292
-1.71621e-05
0.00179676
-1.87484e-05
0.00189557
-2.48218e-05
0.0021557
-3.42314e-05
0.00234648
-3.51977e-05
0.00244069
-1.89095e-05
0.00258467
-5.32782e-06
0.00272068
-9.36724e-06
0.00279304
-1.0355e-05
0.00277781
-1.2645e-05
0.00291578
-1.51045e-05
0.00321714
-1.28793e-05
0.00335951
-8.9599e-06
0.00350608
-7.58567e-06
0.00366866
-9.3736e-06
0.0038549
-8.68677e-06
0.0039686
-8.54844e-06
0.00413005
-8.49366e-06
0.00436348
-5.20587e-06
0.00464922
-4.23655e-06
0.0047943
-3.70993e-06
0.00502083
-3.46596e-06
0.00526213
-2.04839e-06
0.00553406
-5.03184e-07
0.0057814
-5.17472e-07
0.00606008
-6.09573e-07
0.00635758
-6.64714e-09
0.00665648
2.64771e-07
0.00697959
9.03993e-07
0.00697537
1.35425e-06
0.00665893
1.85086e-06
0.00635059
2.05028e-06
0.00606149
2.488e-06
0.00578355
3.98844e-06
0.00551391
5.29727e-06
0.00525801
6.30628e-06
0.00502258
7.24964e-06
0.00479004
7.44014e-06
0.00457903
7.27296e-06
0.00436483
7.91939e-06
0.00420218
7.59046e-06
0.00399243
9.63237e-06
0.00387419
1.1433e-05
0.00363225
1.08825e-05
0.0033587
1.57022e-05
0.00334854
1.87763e-05
0.00327098
1.60357e-05
0.00289288
1.57888e-05
0.00278755
1.25003e-05
0.00281188
2.05512e-05
0.00271033
3.4684e-05
0.00257463
3.72057e-05
0.00244175
3.34743e-05
0.00237057
2.6501e-05
0.00218658
2.34938e-05
0.0019131
2.19148e-05
0.00178379
1.71907e-05
0.00179228
5.28813e-06
0.00193546
1.7151e-05
0.00184299
3.50606e-05
0.00169093
4.36176e-05
0.00160041
4.22751e-05
0.00158421
3.23584e-05
0.00150229
2.63228e-05
0.00135006
2.12134e-05
0.00116921
1.68119e-05
0.00113496
1.21735e-05
0.0012322
2.03921e-05
0.00118639
2.0582e-05
0.00119015
1.83498e-05
0.00112363
1.23816e-05
0.000934163
8.49904e-06
0.000860832
6.02072e-06
0.00096871
-4.42687e-06
0.000797789
-2.05322e-06
0.000849357
-1.41627e-05
0.000868464
-8.34347e-06
0.000780868
0.000710433
-1.23555e-06
0.000635503
-7.32066e-06
0.000770716
-1.12872e-05
0.000846004
-1.23989e-05
0.000868023
-1.49352e-05
0.000809294
-1.54411e-05
0.000964458
-1.02556e-05
0.000892051
-1.11366e-05
0.000928693
-2.11488e-05
0.00109771
-2.27304e-05
0.00119472
-1.03443e-05
0.00118901
-8.77099e-06
0.00127696
-1.086e-05
0.00117057
-1.37561e-05
0.00112602
-2.08808e-05
0.00128833
-2.94608e-05
0.00151666
-3.57717e-05
0.00164004
-2.93581e-05
0.00160775
-1.54943e-05
0.00167796
-4.10519e-06
0.00181271
-7.56185e-06
0.00198404
-1.52594e-05
0.00187297
-1.87196e-05
0.00180239
-2.15074e-05
0.00191063
-2.63528e-05
0.00216493
-3.33371e-05
0.00235979
-3.28912e-05
0.00244689
-2.11793e-05
0.00257595
-1.28925e-05
0.00271589
-1.03787e-05
0.00280574
-1.19317e-05
0.00278404
-1.88602e-05
0.00293417
-2.07578e-05
0.0032425
-1.73606e-05
0.00338186
-1.20867e-05
0.00353826
-9.83131e-06
0.00371291
-9.63423e-06
0.00390182
-6.15095e-06
0.00403705
-1.06963e-05
0.00416808
-8.82754e-06
0.00444504
-6.24681e-06
0.00469756
-4.62408e-06
0.0048886
-5.46899e-06
0.00509567
-4.52564e-06
0.00535806
-2.77693e-06
0.0056351
-1.06641e-06
0.00589536
-2.01403e-07