/*--------------------------------*- C++ -*----------------------------------*\
| =========                 |                                                 |
| \\      /  F ield         | OpenFOAM: The Open Source CFD Toolbox           |
|  \\    /   O peration     | Version:  2312                                  |
|   \\  /    A nd           | Website:  www.openfoam.com                      |
|    \\/     M anipulation  |                                                 |
\*---------------------------------------------------------------------------*/
FoamFile
{
    version     2.0;
    format      ascii;
    arch        "LSB;label=32;scalar=64";
    class       volVectorField;
    location    "2";
    object      U.air;
}
// * * * * * * * * * * * * * * * * * * * * * * * * * * * * * * * * * * * * * //

dimensions      [0 1 -1 0 0 0 0];

internalField   nonuniform List<vector> 
50000
(
(0.00333596 0.118792 0)
(-0.0075754 0.120959 0)
(0.00417238 0.116784 0)
(-0.00608704 0.115308 0)
(-0.00360087 0.11477 0)
(-0.00584134 0.118571 0)
(-0.00996433 0.1186 0)
(-0.00669841 0.124804 0)
(2.55444e-05 0.12266 0)
(-0.00312376 0.120114 0)
(-0.00535212 0.121987 0)
(-0.00322603 0.120648 0)
(-0.010793 0.117247 0)
(0.00104344 0.122421 0)
(0.00847086 0.124154 0)
(0.0197335 0.118974 0)
(0.013636 0.11673 0)
(0.00115644 0.118955 0)
(-0.00227962 0.119914 0)
(0.00126657 0.121172 0)
(-0.0110094 0.11634 0)
(-0.0156412 0.114887 0)
(-0.00662572 0.12061 0)
(0.00459216 0.12228 0)
(0.0198554 0.117861 0)
(0.0187468 0.109891 0)
(0.00835933 0.112773 0)
(0.0041455 0.111702 0)
(0.00201494 0.112623 0)
(-0.0119343 0.103372 0)
(-0.00519385 0.117512 0)
(0.0131805 0.113364 0)
(0.0124575 0.103854 0)
(0.00444342 0.0956348 0)
(0.00465079 0.0801525 0)
(0.00207276 0.0779353 0)
(-0.00128043 0.0894867 0)
(-0.00837681 0.0695801 0)
(-0.0011533 0.103291 0)
(0.00725237 0.0676746 0)
(-0.000285531 0.0838141 0)
(-0.000918695 0.0654318 0)
(-0.00166579 0.0773769 0)
(0.0019578 0.068286 0)
(0.000579272 0.0659834 0)
(9.34144e-05 0.063111 0)
(0.000228537 0.0623246 0)
(-0.00022604 0.0622313 0)
(9.47634e-05 0.0625943 0)
(5.07137e-05 0.0621183 0)
(0.000154294 0.0626856 0)
(0.000307082 0.0622753 0)
(0.000246078 0.0623309 0)
(0.000330077 0.062383 0)
(0.000115807 0.0627309 0)
(1.35116e-05 0.066857 0)
(0.00156474 0.0672198 0)
(0.00150193 0.0635688 0)
(0.000570971 0.0627401 0)
(0.00134511 0.0684583 0)
(-0.00243373 0.0634267 0)
(-0.000100467 0.0724774 0)
(-0.00268743 0.0718034 0)
(-0.00326125 0.100322 0)
(-0.0140295 0.0789697 0)
(-0.00627906 0.114435 0)
(0.00788838 0.100789 0)
(-0.00978368 0.109559 0)
(-0.00798157 0.11554 0)
(0.00918474 0.116761 0)
(0.0138561 0.104606 0)
(0.00122597 0.112082 0)
(-0.00296572 0.111823 0)
(-0.00574121 0.113316 0)
(-0.0153242 0.112472 0)
(-0.0212916 0.114514 0)
(-0.00706215 0.121914 0)
(0.00504284 0.123064 0)
(0.018322 0.117745 0)
(0.0153795 0.115646 0)
(0.00208703 0.120763 0)
(0.00371025 0.119506 0)
(0.00561519 0.121989 0)
(-0.00750416 0.117735 0)
(-0.0147611 0.115907 0)
(-0.00810923 0.123969 0)
(-0.00777592 0.124463 0)
(0.00740738 0.12063 0)
(0.00522718 0.117608 0)
(0.000821663 0.121106 0)
(0.0054317 0.123064 0)
(-0.00580107 0.116507 0)
(0.00144191 0.125175 0)
(0.012752 0.128717 0)
(0.0135382 0.119782 0)
(0.00953118 0.116487 0)
(0.00808371 0.115955 0)
(0.00323099 0.116067 0)
(0.00393706 0.121036 0)
(0.000180011 0.117853 0)
(0.0102875 0.250671 0)
(0.0055073 0.255625 0)
(-0.00500699 0.253933 0)
(-0.0138424 0.259689 0)
(-0.0028033 0.254189 0)
(-0.0193263 0.2626 0)
(-0.0255203 0.252544 0)
(-0.00885362 0.235563 0)
(0.00933237 0.244879 0)
(0.0131799 0.259282 0)
(-0.00382225 0.256841 0)
(-0.0150301 0.256631 0)
(-0.0254229 0.251965 0)
(-0.00713556 0.239133 0)
(0.0157161 0.236267 0)
(0.0296222 0.248374 0)
(0.0298448 0.259406 0)
(0.0149419 0.261544 0)
(0.00234476 0.255391 0)
(-0.00933233 0.255709 0)
(-0.0248661 0.259392 0)
(-0.0299622 0.252074 0)
(-0.013942 0.243253 0)
(0.00825634 0.239596 0)
(0.0234619 0.248489 0)
(0.0311075 0.256832 0)
(0.0207809 0.257921 0)
(0.00741254 0.256176 0)
(-0.00853545 0.257114 0)
(-0.0217887 0.256867 0)
(-0.00818759 0.247525 0)
(0.0164301 0.250204 0)
(0.016419 0.254967 0)
(-6.09495e-05 0.253174 0)
(0.00240878 0.255772 0)
(0.0047459 0.253128 0)
(-0.00300178 0.2535 0)
(-0.0115753 0.252977 0)
(-0.00159969 0.252381 0)
(0.00874612 0.25258 0)
(-0.00023146 0.252993 0)
(-0.00279792 0.252385 0)
(-0.001966 0.252616 0)
(0.00158416 0.252133 0)
(0.000493516 0.252356 0)
(-0.000240217 0.252168 0)
(0.000168675 0.252123 0)
(-0.000240142 0.252121 0)
(0.000124722 0.252061 0)
(4.62194e-05 0.25209 0)
(0.000208421 0.252042 0)
(0.000352201 0.2521 0)
(0.000309094 0.252053 0)
(0.000429949 0.252145 0)
(0.000385683 0.252154 0)
(0.000282913 0.252077 0)
(0.00172346 0.25205 0)
(0.00152909 0.252336 0)
(0.00143071 0.252186 0)
(0.00168423 0.252709 0)
(-0.00247507 0.252273 0)
(0.000758923 0.254618 0)
(0.00230385 0.252676 0)
(-0.00434874 0.25291 0)
(-0.0181022 0.254285 0)
(-0.00246937 0.250378 0)
(0.013279 0.253873 0)
(-0.0138945 0.256955 0)
(-0.0109691 0.248709 0)
(0.0126325 0.248523 0)
(0.0241997 0.2568 0)
(0.0125184 0.257504 0)
(-0.00400182 0.256074 0)
(-0.0146314 0.257971 0)
(-0.0268926 0.257649 0)
(-0.0273595 0.251379 0)
(-0.0113293 0.240619 0)
(0.0105558 0.239042 0)
(0.0307265 0.248746 0)
(0.0315479 0.25815 0)
(0.0179845 0.256223 0)
(0.00406045 0.254953 0)
(-0.00949861 0.257994 0)
(-0.0223854 0.260712 0)
(-0.0265978 0.253191 0)
(-0.0167217 0.241719 0)
(-0.00373354 0.237373 0)
(0.0186992 0.244517 0)
(0.0188708 0.258866 0)
(0.00754851 0.256475 0)
(-0.00955066 0.258223 0)
(-0.0174882 0.256813 0)
(-0.00356233 0.233204 0)
(0.0220887 0.228724 0)
(0.0239398 0.253344 0)
(0.0225508 0.256361 0)
(0.0226727 0.261221 0)
(0.0105651 0.259571 0)
(0.00506973 0.253762 0)
(0.00159522 0.2585 0)
(-0.000472463 0.241164 0)
(-0.00695533 0.260281 0)
(-0.00764805 0.25461 0)
(-0.0150219 0.240965 0)
(-0.00311163 0.244395 0)
(0.00142526 0.261716 0)
(-0.013089 0.243676 0)
(-0.0114518 0.234322 0)
(0.00538505 0.241553 0)
(0.00390115 0.256289 0)
(-0.00381547 0.26349 0)
(-0.0169189 0.25823 0)
(-0.0172075 0.243164 0)
(-0.00319756 0.238249 0)
(0.0151372 0.23811 0)
(0.0227 0.244961 0)
(0.0177358 0.250068 0)
(0.00978495 0.261887 0)
(-0.002418 0.257849 0)
(-0.0102323 0.258017 0)
(-0.0249717 0.253287 0)
(-0.0238899 0.240899 0)
(-0.0124127 0.243034 0)
(0.00618618 0.238654 0)
(0.0181609 0.242711 0)
(0.0184472 0.234774 0)
(0.0119934 0.244964 0)
(0.00329822 0.24579 0)
(-0.00626889 0.245589 0)
(-0.0147177 0.221904 0)
(-0.00834524 0.240586 0)
(0.00985069 0.236466 0)
(0.00920482 0.224725 0)
(0.0030899 0.212232 0)
(0.00253345 0.19725 0)
(-0.00290904 0.196452 0)
(-0.00280247 0.206434 0)
(-0.00739309 0.18916 0)
(-0.00163812 0.218116 0)
(0.00388191 0.187502 0)
(-0.00103797 0.201864 0)
(-0.00211848 0.185535 0)
(-0.00208805 0.195634 0)
(0.00124933 0.188042 0)
(0.00037656 0.186184 0)
(-0.000214858 0.183601 0)
(0.000280523 0.182739 0)
(-0.000330111 0.182677 0)
(0.000127039 0.182999 0)
(2.84509e-05 0.182558 0)
(0.000243035 0.183063 0)
(0.000397335 0.182716 0)
(0.000369337 0.182759 0)
(0.000529697 0.182801 0)
(0.000314872 0.18312 0)
(0.000194693 0.186707 0)
(0.00223305 0.187065 0)
(0.00201867 0.183748 0)
(0.00167482 0.183102 0)
(0.00190685 0.188031 0)
(0.00122739 0.183608 0)
(0.000730422 0.190665 0)
(-0.00220762 0.191091 0)
(-0.00135798 0.216342 0)
(-0.00863487 0.197674 0)
(-0.00421187 0.236611 0)
(0.0106665 0.21824 0)
(-0.00907648 0.237331 0)
(-0.00479895 0.240134 0)
(0.012963 0.239887 0)
(0.0164835 0.224518 0)
(0.0100339 0.244026 0)
(-0.000290669 0.24551 0)
(-0.00723559 0.246596 0)
(-0.0159281 0.241306 0)
(-0.0198348 0.238206 0)
(-0.00859338 0.241995 0)
(0.0111496 0.238405 0)
(0.0265005 0.242908 0)
(0.0296597 0.249087 0)
(0.0166924 0.25307 0)
(0.0091066 0.256791 0)
(-0.00160849 0.254402 0)
(-0.0108984 0.253797 0)
(-0.0180304 0.241774 0)
(-0.0135202 0.242628 0)
(-0.00324252 0.233354 0)
(0.0137133 0.242531 0)
(0.0149859 0.252087 0)
(0.0118551 0.263137 0)
(-0.0041189 0.265579 0)
(-0.00742288 0.246477 0)
(-0.00906447 0.232005 0)
(0.0148683 0.23265 0)
(0.0039519 0.251019 0)
(0.00870811 0.244029 0)
(0.0201829 0.251609 0)
(0.0098476 0.25878 0)
(0.00928193 0.258414 0)
(-4.68007e-05 0.251733 0)
(-0.0067157 0.283376 0)
(-0.00641705 0.295652 0)
(0.00144824 0.291747 0)
(-0.0113628 0.282929 0)
(-0.00814657 0.268747 0)
(0.0065522 0.287467 0)
(-0.00658924 0.280689 0)
(-0.00792345 0.256039 0)
(0.00659638 0.259582 0)
(0.0017178 0.291144 0)
(-0.00296941 0.302415 0)
(-0.014058 0.295168 0)
(-0.0169741 0.268096 0)
(-0.00388792 0.249481 0)
(0.0137732 0.25823 0)
(0.023289 0.273076 0)
(0.0142012 0.286317 0)
(0.00243493 0.293602 0)
(-0.00366197 0.298354 0)
(-0.00899186 0.297429 0)
(-0.0238626 0.28866 0)
(-0.02553 0.273217 0)
(-0.0137709 0.260067 0)
(0.00459985 0.262253 0)
(0.0176529 0.271793 0)
(0.0150473 0.285299 0)
(0.00843536 0.289928 0)
(0.00641354 0.29082 0)
(-0.00723629 0.289858 0)
(-0.017961 0.290125 0)
(-0.00970569 0.269153 0)
(0.0079202 0.274365 0)
(0.00756373 0.289653 0)
(0.00540185 0.291292 0)
(0.00441011 0.29152 0)
(-0.00498407 0.291585 0)
(-0.00390123 0.291369 0)
(-0.00676902 0.291913 0)
(-0.00194805 0.283759 0)
(0.00487127 0.292172 0)
(-0.00112649 0.290826 0)
(-0.00251304 0.292654 0)
(-0.00207878 0.290126 0)
(0.00105887 0.291564 0)
(0.000406328 0.292531 0)
(-0.000387006 0.292534 0)
(0.000165212 0.292614 0)
(-0.000314354 0.292714 0)
(0.000141254 0.292501 0)
(9.19115e-06 0.292644 0)
(0.00022449 0.292451 0)
(0.000399555 0.292624 0)
(0.000413036 0.292534 0)
(0.000586047 0.292634 0)
(0.000493846 0.292647 0)
(0.000400709 0.291557 0)
(0.00223713 0.291452 0)
(0.00191706 0.292579 0)
(0.00151731 0.292618 0)
(0.0020076 0.292477 0)
(0.00108403 0.292615 0)
(0.000658706 0.292647 0)
(-0.00207349 0.292873 0)
(0.00050935 0.289005 0)
(-0.00956478 0.29242 0)
(-0.00361496 0.274318 0)
(0.0110312 0.289666 0)
(-0.00845529 0.28947 0)
(-0.00361796 0.271334 0)
(0.0143502 0.270989 0)
(0.0188259 0.289156 0)
(0.0109157 0.289577 0)
(-0.00282119 0.290407 0)
(-0.00510845 0.290556 0)
(-0.0108685 0.286928 0)
(-0.0191587 0.276775 0)
(-0.0065298 0.260364 0)
(0.0116376 0.25997 0)
(0.0279257 0.2677 0)
(0.0275131 0.285753 0)
(0.0145445 0.297284 0)
(0.0103746 0.298212 0)
(0.0033792 0.298038 0)
(-0.00436863 0.288872 0)
(-0.0187632 0.279385 0)
(-0.0115618 0.26553 0)
(-0.00257836 0.261103 0)
(0.0138621 0.259347 0)
(0.0156022 0.284315 0)
(0.0113916 0.302739 0)
(0.00353135 0.301816 0)
(-0.00417745 0.282676 0)
(-0.0108431 0.249426 0)
(0.01772 0.25909 0)
(0.00409412 0.283489 0)
(0.00338427 0.261986 0)
(0.01954 0.282438 0)
(0.0114513 0.294685 0)
(0.00869914 0.299995 0)
(-0.000187506 0.297327 0)
(-0.00326324 0.277817 0)
(-0.0011714 0.279244 0)
(0.00210847 0.28127 0)
(-0.0026956 0.27428 0)
(-0.00039063 0.252582 0)
(0.00760324 0.283945 0)
(0.00141801 0.267939 0)
(0.000344295 0.24847 0)
(0.00592812 0.257842 0)
(-0.000498338 0.296719 0)
(-0.00376559 0.311423 0)
(-0.013416 0.295436 0)
(-0.0117472 0.256507 0)
(-0.00266328 0.239997 0)
(0.0114617 0.25017 0)
(0.0135163 0.26187 0)
(0.00480978 0.280989 0)
(-0.00229672 0.291464 0)
(-0.00515084 0.292841 0)
(-0.008479 0.294788 0)
(-0.0207853 0.281769 0)
(-0.0211114 0.258009 0)
(-0.0116964 0.25102 0)
(0.0017691 0.253573 0)
(0.00758207 0.258649 0)
(0.00470318 0.26036 0)
(0.00183397 0.271612 0)
(0.0044968 0.279333 0)
(-0.00792395 0.28093 0)
(-0.00735149 0.25024 0)
(-0.00960224 0.255418 0)
(0.00220303 0.256033 0)
(0.00159639 0.25622 0)
(0.000905552 0.248056 0)
(-0.000444852 0.231576 0)
(-0.00379651 0.234066 0)
(-0.00340038 0.241915 0)
(-0.00464126 0.223771 0)
(-0.001926 0.245816 0)
(-9.04721e-05 0.222343 0)
(-0.00159626 0.238925 0)
(-0.00266327 0.221396 0)
(-0.00170612 0.229503 0)
(0.000305102 0.223217 0)
(-0.000205372 0.222297 0)
(-0.000540909 0.219716 0)
(0.000337831 0.218684 0)
(-0.000352996 0.218766 0)
(0.000112626 0.218965 0)
(-2.85863e-05 0.218677 0)
(0.000270063 0.219056 0)
(0.000406964 0.218795 0)
(0.000430762 0.218757 0)
(0.000647967 0.218808 0)
(0.00052788 0.219016 0)
(0.000390721 0.222438 0)
(0.00223312 0.222769 0)
(0.00218517 0.219581 0)
(0.00223231 0.218887 0)
(0.00195662 0.223579 0)
(0.00299723 0.219457 0)
(0.00189991 0.224788 0)
(-0.000485458 0.227445 0)
(0.00172844 0.252724 0)
(-0.00202446 0.23094 0)
(-0.00158925 0.25574 0)
(0.00844983 0.252339 0)
(-0.00273416 0.268578 0)
(0.000804774 0.257259 0)
(0.0131143 0.255766 0)
(0.00911597 0.252748 0)
(0.0111585 0.278425 0)
(-0.00114315 0.279267 0)
(0.000568676 0.273667 0)
(-0.000680316 0.268725 0)
(-0.00690895 0.257066 0)
(-0.00212338 0.251041 0)
(0.0106387 0.250719 0)
(0.0229553 0.256636 0)
(0.024945 0.275929 0)
(0.0137788 0.293552 0)
(0.00997112 0.293418 0)
(0.00659933 0.296387 0)
(0.00165831 0.28457 0)
(-0.00609839 0.264508 0)
(-0.00638616 0.255788 0)
(-0.00158116 0.245908 0)
(0.0115831 0.249864 0)
(0.0139647 0.273627 0)
(0.0132021 0.301911 0)
(0.00503002 0.306121 0)
(0.00208283 0.273353 0)
(-0.0056966 0.240556 0)
(0.0113 0.248179 0)
(0.00216054 0.279318 0)
(0.00353278 0.247034 0)
(0.0137403 0.263484 0)
(0.0082689 0.290613 0)
(0.00608343 0.298705 0)
(-0.000533375 0.302671 0)
(0.000907437 0.293343 0)
(0.00382243 0.288465 0)
(0.00723721 0.291474 0)
(0.00351626 0.286394 0)
(0.00228453 0.26038 0)
(0.00864585 0.290298 0)
(0.00238305 0.286856 0)
(0.00266222 0.258673 0)
(0.00635193 0.263839 0)
(-0.000500372 0.295763 0)
(-0.0046938 0.306856 0)
(-0.0122358 0.300007 0)
(-0.0101116 0.262933 0)
(-0.00241584 0.243961 0)
(0.00889709 0.245903 0)
(0.00952046 0.277087 0)
(-0.0022835 0.295109 0)
(-0.006636 0.299196 0)
(-0.00484546 0.300804 0)
(-0.00709676 0.303664 0)
(-0.0158789 0.297277 0)
(-0.0203478 0.271309 0)
(-0.0115104 0.257378 0)
(-8.50792e-05 0.25864 0)
(0.0061007 0.27335 0)
(-0.000294962 0.288474 0)
(0.00101749 0.29192 0)
(0.00250426 0.295772 0)
(-0.00614995 0.296163 0)
(-0.00467758 0.292825 0)
(-0.0100594 0.268982 0)
(0.0019864 0.273506 0)
(0.00165006 0.293921 0)
(0.00436988 0.296635 0)
(-0.000447272 0.296876 0)
(-0.00656533 0.297864 0)
(-0.00285395 0.297176 0)
(-0.00404782 0.297364 0)
(-0.00206088 0.286512 0)
(0.000725048 0.298071 0)
(-0.00172268 0.296304 0)
(-0.00200342 0.299009 0)
(-0.00147411 0.295061 0)
(0.000386671 0.297512 0)
(-0.000115754 0.298908 0)
(-0.000485593 0.298763 0)
(0.000227177 0.29921 0)
(-0.000340351 0.299284 0)
(9.40807e-05 0.299085 0)
(-4.32755e-05 0.299168 0)
(0.000254047 0.298986 0)
(0.000396539 0.299107 0)
(0.000459056 0.299103 0)
(0.000645393 0.299096 0)
(0.000645972 0.29928 0)
(0.00059066 0.297537 0)
(0.00206082 0.297364 0)
(0.00206251 0.298998 0)
(0.00164039 0.299077 0)
(0.00184026 0.298776 0)
(0.00337818 0.299061 0)
(0.00172074 0.298612 0)
(-0.00356528 0.298933 0)
(0.00198734 0.294598 0)
(-0.0023624 0.297816 0)
(-0.00139187 0.273908 0)
(0.00794075 0.294237 0)
(-0.00163956 0.29365 0)
(0.00147013 0.268977 0)
(0.0137054 0.271126 0)
(0.00605495 0.291303 0)
(0.00777785 0.29545 0)
(0.001341 0.295838 0)
(0.00127767 0.291875 0)
(0.00487499 0.290258 0)
(-0.0057426 0.280005 0)
(0.000429558 0.256127 0)
(0.0103348 0.254607 0)
(0.0217692 0.263687 0)
(0.0218093 0.293298 0)
(0.0107113 0.297548 0)
(0.0074156 0.300936 0)
(0.00931406 0.298677 0)
(0.0101238 0.296663 0)
(-0.0011835 0.284641 0)
(-0.00379008 0.264091 0)
(1.43294e-05 0.244131 0)
(0.0109773 0.252439 0)
(0.0120056 0.285522 0)
(0.0118548 0.310724 0)
(0.00829871 0.30853 0)
(0.00544143 0.291521 0)
(-0.00506976 0.245626 0)
(0.00872107 0.25548 0)
(0.0030121 0.290413 0)
(0.00368203 0.251282 0)
(0.00936896 0.279104 0)
(0.00216824 0.30233 0)
(0.00316366 0.312067 0)
(-0.000562386 0.299515 0)
(0.0053732 0.28362 0)
(0.0104625 0.277402 0)
(0.0116135 0.285851 0)
(0.00803863 0.285217 0)
(0.00585345 0.257553 0)
(0.00904605 0.29038 0)
(0.00132461 0.276805 0)
(0.00800895 0.252322 0)
(0.00545166 0.264854 0)
(-0.00280324 0.290855 0)
(-0.00298803 0.302247 0)
(-0.00965429 0.290502 0)
(-0.00807611 0.256118 0)
(-0.00199151 0.235587 0)
(0.00236478 0.24265 0)
(-0.000629458 0.273512 0)
(-0.0069619 0.28709 0)
(-0.0089015 0.295078 0)
(-0.00483714 0.29692 0)
(-0.00782225 0.303024 0)
(-0.0135361 0.292959 0)
(-0.0159202 0.262544 0)
(-0.01137 0.248603 0)
(-0.00130294 0.251595 0)
(-0.00111626 0.264331 0)
(-0.00692004 0.270577 0)
(-0.00409346 0.276383 0)
(-0.00122826 0.289779 0)
(-0.00709613 0.291178 0)
(-0.00297079 0.261936 0)
(-0.00825384 0.260748 0)
(-0.00168285 0.261514 0)
(-0.00318583 0.266241 0)
(-0.0016719 0.261119 0)
(-0.00339943 0.251002 0)
(-0.00364662 0.251442 0)
(-0.00378686 0.255271 0)
(-0.00334149 0.240676 0)
(-0.00209393 0.256311 0)
(-0.0025059 0.23932 0)
(-0.00192585 0.254968 0)
(-0.00263333 0.238566 0)
(-0.00122054 0.245501 0)
(-0.000531923 0.239936 0)
(-0.00074013 0.239964 0)
(-0.00075742 0.237605 0)
(0.000320697 0.236653 0)
(-0.000337026 0.236507 0)
(7.31292e-05 0.236905 0)
(-6.35738e-05 0.23646 0)
(0.000270479 0.237013 0)
(0.000400291 0.236542 0)
(0.000481477 0.236735 0)
(0.000699438 0.23654 0)
(0.00074909 0.236855 0)
(0.000632084 0.239737 0)
(0.00197746 0.240332 0)
(0.00204853 0.237372 0)
(0.00256215 0.236642 0)
(0.00191349 0.239979 0)
(0.00353082 0.237124 0)
(0.00257465 0.242459 0)
(0.0019318 0.243311 0)
(0.00287707 0.265527 0)
(0.00281586 0.246811 0)
(0.00142985 0.261235 0)
(0.00624683 0.264869 0)
(0.00284282 0.278996 0)
(0.00389191 0.261867 0)
(0.0101823 0.261808 0)
(0.00530683 0.265195 0)
(0.00773994 0.287795 0)
(0.00518959 0.289412 0)
(0.00587553 0.278679 0)
(0.0100431 0.278618 0)
(0.00357414 0.264537 0)
(0.00387024 0.251576 0)
(0.0101968 0.247539 0)
(0.016987 0.25732 0)
(0.0174922 0.287921 0)
(0.0101479 0.298915 0)
(0.0067382 0.297969 0)
(0.0109612 0.298165 0)
(0.0128491 0.291002 0)
(0.00552285 0.279775 0)
(0.00390859 0.259652 0)
(0.0014837 0.24953 0)
(0.0101126 0.248605 0)
(0.0092043 0.280042 0)
(0.01297 0.305081 0)
(0.0099911 0.311691 0)
(0.00736086 0.290242 0)
(-0.00125076 0.243708 0)
(0.00712307 0.248282 0)
(0.00359106 0.296202 0)
(0.00089493 0.249169 0)
(0.00441185 0.27108 0)
(0.000141432 0.296562 0)
(0.00138532 0.311318 0)
(-0.00219799 0.290949 0)
(0.00943172 0.264438 0)
(0.0118374 0.283379 0)
(0.0112748 0.293547 0)
(0.00569415 0.297094 0)
(0.00521598 0.261693 0)
(0.00889955 0.293718 0)
(0.000472563 0.285416 0)
(0.00983381 0.249266 0)
(0.00301774 0.278391 0)
(-0.00628641 0.312561 0)
(-0.00403228 0.31984 0)
(-0.00545069 0.30528 0)
(-0.0059064 0.257894 0)
(-0.00255152 0.233939 0)
(-0.000675177 0.246009 0)
(-0.00439364 0.279738 0)
(-0.0126155 0.296876 0)
(-0.0107075 0.299309 0)
(-0.00533287 0.299249 0)
(-0.00691855 0.307247 0)
(-0.00601016 0.293603 0)
(-0.0135142 0.270548 0)
(-0.00825879 0.247219 0)
(-0.00489744 0.249659 0)
(-0.00152134 0.275358 0)
(-0.00842075 0.287616 0)
(-0.00654799 0.289304 0)
(-0.00507403 0.295271 0)
(-0.00348291 0.296019 0)
(-0.000472805 0.291352 0)
(-0.00838908 0.268662 0)
(-0.000687551 0.270994 0)
(-0.00207295 0.292598 0)
(-0.000360049 0.29546 0)
(-0.00285441 0.29701 0)
(-0.00392723 0.297631 0)
(-0.00265508 0.296485 0)
(-0.00388731 0.296471 0)
(-0.00221368 0.284894 0)
(-0.00170682 0.297538 0)
(-0.00198049 0.295839 0)
(-0.00166571 0.298484 0)
(-0.00120363 0.29387 0)
(-0.000135037 0.296939 0)
(-0.000565319 0.298409 0)
(-0.000522581 0.298161 0)
(0.000227576 0.298689 0)
(-0.000323828 0.299007 0)
(5.32065e-05 0.298557 0)
(-7.34258e-05 0.298835 0)
(0.000250552 0.298444 0)
(0.000404923 0.298771 0)
(0.000513229 0.29858 0)
(0.000658717 0.298749 0)
(0.000776192 0.298798 0)
(0.000713629 0.296829 0)
(0.00189802 0.296491 0)
(0.00204258 0.298535 0)
(0.002241 0.298691 0)
(0.00188882 0.298343 0)
(0.00350984 0.298697 0)
(0.00217248 0.297735 0)
(-0.00180567 0.29817 0)
(0.00183307 0.293872 0)
(0.00180728 0.297213 0)
(0.00124076 0.272126 0)
(0.00530788 0.293124 0)
(0.00337781 0.293016 0)
(0.00402543 0.265785 0)
(0.0107251 0.270686 0)
(0.00356352 0.290294 0)
(0.00265264 0.294661 0)
(0.00889042 0.294946 0)
(0.00886134 0.289593 0)
(0.012157 0.289709 0)
(0.00394229 0.282151 0)
(0.00604302 0.254735 0)
(0.00835954 0.244723 0)
(0.0144165 0.261035 0)
(0.0110893 0.287245 0)
(0.00873577 0.30589 0)
(0.00654792 0.300334 0)
(0.0118388 0.292828 0)
(0.0175105 0.296344 0)
(0.00946522 0.288108 0)
(0.00620107 0.267081 0)
(0.00297164 0.245282 0)
(0.0104098 0.247434 0)
(0.00760579 0.2854 0)
(0.00882337 0.30051 0)
(0.0101891 0.310486 0)
(0.00778443 0.294575 0)
(0.00198722 0.249629 0)
(0.00491365 0.246271 0)
(0.00260592 0.292782 0)
(-2.16905e-05 0.250205 0)
(0.000210662 0.281953 0)
(-0.00885826 0.294539 0)
(-0.00210222 0.301661 0)
(-0.000987941 0.308877 0)
(0.00654155 0.254575 0)
(0.00974104 0.277982 0)
(0.0080011 0.292359 0)
(0.00264297 0.294526 0)
(0.00425965 0.25742 0)
(0.00370853 0.288585 0)
(0.000273043 0.276776 0)
(0.0101334 0.257799 0)
(-0.00114115 0.271737 0)
(-0.00662324 0.310944 0)
(-0.00598432 0.312958 0)
(-0.0036557 0.302195 0)
(-0.00565245 0.25646 0)
(-0.00235164 0.241483 0)
(-0.00483878 0.252068 0)
(-0.00848673 0.276017 0)
(-0.0136978 0.295748 0)
(-0.0112669 0.291285 0)
(-0.00635008 0.295618 0)
(-0.00759128 0.303404 0)
(-0.00230399 0.298141 0)
(-0.0112277 0.26578 0)
(-0.00767258 0.253328 0)
(-0.00625859 0.254563 0)
(-0.00611051 0.267736 0)
(-0.0111793 0.276232 0)
(-0.00930548 0.277588 0)
(-0.00786963 0.290766 0)
(-0.00438828 0.291213 0)
(-0.0017645 0.269323 0)
(-0.00578066 0.263624 0)
(-0.00356692 0.263683 0)
(-0.00596162 0.271096 0)
(-0.00444456 0.267485 0)
(-0.0049567 0.262075 0)
(-0.00285492 0.260287 0)
(-0.00416391 0.262406 0)
(-0.00280373 0.251836 0)
(-0.0023089 0.261637 0)
(-0.00368028 0.250141 0)
(-0.00212322 0.263446 0)
(-0.00266689 0.249412 0)
(-0.000906458 0.254712 0)
(-0.00129322 0.250597 0)
(-0.000965469 0.25074 0)
(-0.000781855 0.24936 0)
(0.000184316 0.248032 0)
(-0.000347014 0.248173 0)
(7.16502e-05 0.248253 0)
(-6.11663e-05 0.248142 0)
(0.000260045 0.248338 0)
(0.00033999 0.248212 0)
(0.00057457 0.248158 0)
(0.000728218 0.248239 0)
(0.000761274 0.248212 0)
(0.000853244 0.250864 0)
(0.00179414 0.251242 0)
(0.00201286 0.248879 0)
(0.00285269 0.248253 0)
(0.00209571 0.250285 0)
(0.00350881 0.248619 0)
(0.00277671 0.254226 0)
(0.00368327 0.253283 0)
(0.00286606 0.270212 0)
(0.00547921 0.255923 0)
(0.00373566 0.263704 0)
(0.00462052 0.269956 0)
(0.0064625 0.2825 0)
(0.00554814 0.261868 0)
(0.00707771 0.26475 0)
(0.00448558 0.27372 0)
(0.00373824 0.287809 0)
(0.0108201 0.289064 0)
(0.0112381 0.280149 0)
(0.0136106 0.283154 0)
(0.00916537 0.269167 0)
(0.00808462 0.252285 0)
(0.00800009 0.252462 0)
(0.0125445 0.258728 0)
(0.00608458 0.28908 0)
(0.007896 0.301547 0)
(0.00801283 0.299405 0)
(0.0148401 0.281735 0)
(0.0174445 0.295304 0)
(0.0130551 0.280091 0)
(0.0100956 0.265804 0)
(0.00481931 0.242876 0)
(0.00921269 0.247444 0)
(0.00487521 0.277027 0)
(0.00872405 0.30582 0)
(0.0091417 0.307101 0)
(0.00782888 0.299491 0)
(0.0031233 0.253127 0)
(0.00109447 0.255308 0)
(0.00211089 0.2849 0)
(-0.00221306 0.248494 0)
(-0.00259392 0.281015 0)
(-0.00719586 0.301251 0)
(-0.00587644 0.298922 0)
(-0.000910499 0.30059 0)
(0.00504208 0.250695 0)
(0.00678914 0.275979 0)
(0.00211435 0.300169 0)
(-0.000316894 0.302721 0)
(0.00172072 0.261029 0)
(0.000347145 0.296932 0)
(-0.000441624 0.281871 0)
(0.00831611 0.255109 0)
(-0.00316219 0.290726 0)
(-0.00837835 0.309456 0)
(-0.00555606 0.303846 0)
(-0.000914738 0.299955 0)
(-0.00670668 0.257305 0)
(-0.00203107 0.237866 0)
(-0.00516003 0.257795 0)
(-0.00895668 0.289352 0)
(-0.0148055 0.298574 0)
(-0.0144061 0.287916 0)
(-0.00705803 0.299062 0)
(-0.00406884 0.297641 0)
(-0.000501718 0.299841 0)
(-0.00906436 0.273005 0)
(-0.00728913 0.249447 0)
(-0.00596574 0.253199 0)
(-0.00420046 0.276993 0)
(-0.0113013 0.287128 0)
(-0.0117767 0.28798 0)
(-0.0105252 0.292464 0)
(-0.00114321 0.293187 0)
(-0.000587974 0.289852 0)
(-0.0058844 0.268895 0)
(-0.00229131 0.269972 0)
(-0.00447069 0.290899 0)
(-0.00349472 0.293388 0)
(-0.003705 0.29513 0)
(-0.00235467 0.295622 0)
(-0.00325768 0.294327 0)
(-0.00371494 0.294058 0)
(-0.00245693 0.282969 0)
(-0.0030625 0.295274 0)
(-0.00213249 0.293866 0)
(-0.00178013 0.296114 0)
(-0.00110286 0.291543 0)
(-0.000692532 0.294622 0)
(-0.000821461 0.29629 0)
(-0.000503229 0.29559 0)
(0.000171798 0.29647 0)
(-0.000367994 0.296677 0)
(4.05695e-05 0.296326 0)
(-4.01852e-05 0.296472 0)
(0.000222167 0.296191 0)
(0.00037846 0.296428 0)
(0.00063398 0.296358 0)
(0.000683874 0.296431 0)
(0.000711973 0.296603 0)
(0.000793025 0.294391 0)
(0.00178831 0.294024 0)
(0.00224117 0.296172 0)
(0.00252484 0.29634 0)
(0.00204393 0.296126 0)
(0.00302392 0.296487 0)
(0.0023755 0.295733 0)
(0.00108743 0.295766 0)
(0.00234099 0.292016 0)
(0.00347065 0.29486 0)
(0.00294373 0.271302 0)
(0.00387297 0.290879 0)
(0.00618998 0.291627 0)
(0.00539933 0.265821 0)
(0.00735242 0.270574 0)
(0.00430205 0.289223 0)
(0.000999444 0.291786 0)
(0.0121114 0.291341 0)
(0.0125574 0.2883 0)
(0.0141703 0.289494 0)
(0.00852598 0.283616 0)
(0.00803128 0.255647 0)
(0.00722206 0.24717 0)
(0.0107897 0.262442 0)
(0.00410486 0.293656 0)
(0.00305854 0.298194 0)
(0.0077006 0.293785 0)
(0.0171858 0.290792 0)
(0.0180486 0.299528 0)
(0.0139216 0.294789 0)
(0.0114223 0.272576 0)
(0.00487638 0.252137 0)
(0.00995319 0.250884 0)
(0.000817541 0.282241 0)
(0.00720649 0.300653 0)
(0.0109128 0.314287 0)
(0.00804599 0.300231 0)
(0.00265654 0.252859 0)
(4.63679e-06 0.250429 0)
(0.00304205 0.30186 0)
(-0.00132171 0.257022 0)
(-0.00272491 0.288273 0)
(-0.00583352 0.304472 0)
(-0.00709988 0.300101 0)
(-0.00221138 0.289195 0)
(0.00366244 0.250039 0)
(-0.000347535 0.277931 0)
(-0.00140913 0.295883 0)
(-0.000571235 0.298601 0)
(0.00112942 0.262813 0)
(-0.0065182 0.299804 0)
(0.000303677 0.274236 0)
(0.00440226 0.255272 0)
(-0.00593174 0.294219 0)
(-0.00806317 0.30927 0)
(-0.00436932 0.309516 0)
(0.000783958 0.301422 0)
(-0.00536073 0.257512 0)
(-0.0018866 0.233906 0)
(-0.00720618 0.255227 0)
(-0.00845444 0.289422 0)
(-0.0147171 0.296591 0)
(-0.0148777 0.292147 0)
(-0.00671814 0.290628 0)
(0.000220328 0.304023 0)
(-0.000299835 0.295983 0)
(-0.00784205 0.269542 0)
(-0.00565092 0.244593 0)
(-0.00755279 0.253105 0)
(-0.00781875 0.270547 0)
(-0.0118989 0.281161 0)
(-0.0124251 0.278938 0)
(-0.0110038 0.287634 0)
(-0.00330447 0.288246 0)
(-0.00243203 0.274492 0)
(-0.00402812 0.265361 0)
(-0.00464667 0.265278 0)
(-0.00727992 0.274449 0)
(-0.00619704 0.270929 0)
(-0.00562241 0.267324 0)
(-0.00237663 0.265565 0)
(-0.00430226 0.267608 0)
(-0.00238571 0.259271 0)
(-0.00257105 0.264899 0)
(-0.00425285 0.257864 0)
(-0.00206196 0.268193 0)
(-0.00246309 0.257197 0)
(-0.000987241 0.261026 0)
(-0.00183735 0.257873 0)
(-0.00106913 0.258352 0)
(-0.000899923 0.257472 0)
(-5.20346e-05 0.256353 0)
(-0.000351001 0.256355 0)
(-1.9597e-05 0.256529 0)
(7.56413e-05 0.256309 0)
(0.000243071 0.256585 0)
(0.000375058 0.256298 0)
(0.000573317 0.25645 0)
(0.000731128 0.256379 0)
(0.00115097 0.256468 0)
(0.00112588 0.25837 0)
(0.00161004 0.258877 0)
(0.00151732 0.256944 0)
(0.0026839 0.256476 0)
(0.00253974 0.25764 0)
(0.00343902 0.25667 0)
(0.00279799 0.262058 0)
(0.00515972 0.260052 0)
(0.00285939 0.272992 0)
(0.00612872 0.261675 0)
(0.00529836 0.265291 0)
(0.00404548 0.272079 0)
(0.00819836 0.283508 0)
(0.00623353 0.263908 0)
(0.00531065 0.266229 0)
(0.0054507 0.278912 0)
(0.00389103 0.285578 0)
(0.0117234 0.285652 0)
(0.0131671 0.280832 0)
(0.0136905 0.285728 0)
(0.0110722 0.272731 0)
(0.0101684 0.253954 0)
(0.00762403 0.245179 0)
(0.00939029 0.261108 0)
(0.00466972 0.291733 0)
(0.00131682 0.303202 0)
(0.00868016 0.286096 0)
(0.0141758 0.286338 0)
(0.0177204 0.296789 0)
(0.0137357 0.287395 0)
(0.0120412 0.271912 0)
(0.00584438 0.248606 0)
(0.00941427 0.249932 0)
(0.00293222 0.284912 0)
(0.00405465 0.289811 0)
(0.0109277 0.310089 0)
(0.00830152 0.299405 0)
(0.00621414 0.256002 0)
(0.00133869 0.249187 0)
(0.00231719 0.300552 0)
(-0.00297775 0.262979 0)
(-0.000847404 0.28739 0)
(-0.00476197 0.300867 0)
(-0.00827003 0.297381 0)
(-0.00469351 0.284002 0)
(0.00266198 0.246532 0)
(0.000433696 0.281042 0)
(-0.00258194 0.293627 0)
(-0.0053628 0.292488 0)
(9.41889e-05 0.260669 0)
(-0.00743752 0.299034 0)
(-0.00304624 0.269238 0)
(-6.49412e-05 0.26555 0)
(-0.0076876 0.292006 0)
(-0.0106393 0.304485 0)
(-0.00567952 0.301269 0)
(0.00232095 0.29867 0)
(-0.00470837 0.259355 0)
(-0.00188791 0.244775 0)
(-0.00689921 0.257835 0)
(-0.00853714 0.287587 0)
(-0.0148032 0.299873 0)
(-0.0145085 0.288701 0)
(-0.0105275 0.284606 0)
(0.00190259 0.29775 0)
(0.000886191 0.302357 0)
(-0.00667799 0.275092 0)
(-0.00531473 0.251898 0)
(-0.00697903 0.254455 0)
(-0.0063445 0.278237 0)
(-0.0112541 0.287798 0)
(-0.0130743 0.287715 0)
(-0.0116093 0.289066 0)
(-0.00158569 0.290161 0)
(-0.00239208 0.288451 0)
(-0.00400167 0.269219 0)
(-0.00342294 0.270102 0)
(-0.00566098 0.289657 0)
(-0.00489392 0.291415 0)
(-0.0042308 0.292532 0)
(-0.00204265 0.293232 0)
(-0.00337945 0.292268 0)
(-0.00328881 0.291037 0)
(-0.002685 0.281619 0)
(-0.00356771 0.292626 0)
(-0.00222852 0.291877 0)
(-0.00160467 0.293369 0)
(-0.00127465 0.289234 0)
(-0.00140758 0.292133 0)
(-0.00102412 0.293675 0)
(-0.000413989 0.292774 0)
(7.35881e-05 0.293726 0)
(-0.000454973 0.294072 0)
(4.37566e-05 0.293587 0)
(-6.08149e-05 0.293828 0)
(0.0002602 0.293463 0)
(0.000364598 0.293788 0)
(0.000600256 0.293623 0)
(0.000691956 0.293707 0)
(0.000761888 0.293837 0)
(0.000996942 0.291735 0)
(0.0018258 0.291203 0)
(0.0018723 0.293347 0)
(0.0026106 0.293468 0)
(0.00248846 0.293411 0)
(0.00277095 0.293824 0)
(0.00242048 0.293273 0)
(0.00308202 0.293283 0)
(0.00244857 0.290403 0)
(0.00414923 0.292005 0)
(0.00407375 0.270909 0)
(0.00366152 0.288828 0)
(0.00728204 0.290434 0)
(0.00606517 0.266716 0)
(0.00534291 0.270396 0)
(0.00569391 0.288017 0)
(0.00323877 0.28935 0)
(0.0112744 0.288069 0)
(0.0129459 0.287303 0)
(0.0136215 0.290102 0)
(0.00982549 0.28419 0)
(0.00923163 0.257024 0)
(0.00728732 0.253192 0)
(0.00829191 0.263811 0)
(0.00374098 0.298334 0)
(0.000439365 0.298156 0)
(0.0109405 0.290631 0)
(0.0139126 0.285616 0)
(0.0169299 0.294352 0)
(0.012769 0.292372 0)
(0.0107215 0.276864 0)
(0.00736405 0.2476 0)
(0.00822434 0.253083 0)
(0.00345106 0.289776 0)
(0.00529755 0.297133 0)
(0.0086094 0.303816 0)
(0.00649012 0.297359 0)
(0.0065621 0.265946 0)
(0.00183418 0.259168 0)
(0.00505763 0.296603 0)
(-0.00200455 0.261943 0)
(0.000449223 0.293264 0)
(-0.0026757 0.308487 0)
(-0.00704499 0.296366 0)
(0.00091761 0.277546 0)
(0.00188629 0.247331 0)
(-0.00264258 0.284164 0)