/*--------------------------------*- C++ -*----------------------------------*\
| =========                 |                                                 |
| \\      /  F ield         | OpenFOAM: The Open Source CFD Toolbox           |
|  \\    /   O peration     | Version:  2312                                  |
|   \\  /    A nd           | Website:  www.openfoam.com                      |
|    \\/     M anipulation  |                                                 |
\*---------------------------------------------------------------------------*/
FoamFile
{
    version     2.0;
    format      ascii;
    arch        "LSB;label=32;scalar=64";
    class       volVectorField;
    location    "2";
    object      U.airMean;
}
// * * * * * * * * * * * * * * * * * * * * * * * * * * * * * * * * * * * * * //

dimensions      [0 1 -1 0 0 0 0];

internalField   nonuniform List<vector> 
50000
(
(0.00215784 0.117527 0)
(-0.00438396 0.117106 0)
(0.00245954 0.116366 0)
(-0.00497713 0.115139 0)
(-0.00134788 0.117655 0)
(0.00141077 0.117996 0)
(-0.00586315 0.114426 0)
(-0.000693 0.120309 0)
(0.00532248 0.118429 0)
(0.00322927 0.116161 0)
(-0.00246387 0.116514 0)
(0.000452263 0.115735 0)
(-0.0056737 0.11184 0)
(-0.000938221 0.11757 0)
(0.00725776 0.117523 0)
(0.0104611 0.112345 0)
(0.00560019 0.112309 0)
(0.00202842 0.109796 0)
(0.00115276 0.107361 0)
(0.000576896 0.106097 0)
(-0.00268095 0.108894 0)
(-0.00665569 0.10783 0)
(-0.00586638 0.111686 0)
(0.00315308 0.11338 0)
(0.00895269 0.104965 0)
(0.00571228 0.105971 0)
(0.00371928 0.103299 0)
(0.00201106 0.0986612 0)
(0.00109709 0.0995593 0)
(-0.00263691 0.0967614 0)
(-0.00147566 0.101148 0)
(0.00316538 0.0978425 0)
(0.00218746 0.0951551 0)
(0.000316183 0.0916403 0)
(0.000441015 0.0899153 0)
(0.00035919 0.0883929 0)
(-0.000442616 0.0912223 0)
(-0.00158514 0.0875305 0)
(-0.000424122 0.0936247 0)
(0.0010705 0.08729 0)
(-0.000220021 0.0897518 0)
(-0.000359601 0.0869798 0)
(-0.000311707 0.088745 0)
(0.000270243 0.0872045 0)
(-1.95086e-05 0.0870295 0)
(-9.99165e-06 0.0868502 0)
(5.07785e-05 0.0866286 0)
(-3.83507e-05 0.0866161 0)
(5.13563e-05 0.0867875 0)
(-7.33957e-06 0.0866549 0)
(4.37456e-05 0.0866675 0)
(6.8048e-05 0.0867284 0)
(3.84459e-05 0.0866337 0)
(0.000109208 0.0867596 0)
(4.45941e-05 0.0866819 0)
(7.34284e-05 0.0871743 0)
(0.000303341 0.0871964 0)
(0.00032229 0.0868495 0)
(0.000223451 0.0868088 0)
(0.00032613 0.0877609 0)
(-0.000306052 0.0868772 0)
(0.000223682 0.0887242 0)
(-0.000163189 0.0875524 0)
(-0.000189476 0.0939281 0)
(-0.0028857 0.0888034 0)
(-0.00097116 0.100179 0)
(0.00227528 0.0939839 0)
(-0.00264241 0.0970719 0)
(-0.001839 0.101807 0)
(0.00305627 0.100151 0)
(0.00316361 0.0973759 0)
(-0.000108121 0.0995715 0)
(-0.00126957 0.0991513 0)
(-0.00308225 0.101787 0)
(-0.00473367 0.105559 0)
(-0.00894553 0.103199 0)
(-0.00420339 0.112805 0)
(0.00544407 0.112156 0)
(0.00727583 0.107428 0)
(0.00408989 0.108646 0)
(0.000136997 0.106123 0)
(-0.000514487 0.107238 0)
(-0.00126209 0.109632 0)
(-0.00436778 0.112341 0)
(-0.00961314 0.112031 0)
(-0.00662477 0.117502 0)
(-0.000964066 0.118283 0)
(0.00581169 0.11277 0)
(0.000809097 0.115148 0)
(0.00206344 0.116165 0)
(-0.000493534 0.117442 0)
(-0.0067486 0.117028 0)
(-0.000419651 0.120494 0)
(0.00760538 0.115614 0)
(0.000438346 0.118022 0)
(0.0038701 0.117732 0)
(0.00692494 0.115578 0)
(0.00013564 0.116455 0)
(0.00237603 0.116482 0)
(0.000662705 0.11266 0)
(0.0066082 0.248372 0)
(0.00657745 0.254696 0)
(-0.00548226 0.253765 0)
(-0.0141669 0.253479 0)
(0.00177231 0.245591 0)
(-0.00450255 0.257044 0)
(-0.0176531 0.252894 0)
(-0.00248905 0.239584 0)
(0.0105168 0.244448 0)
(0.013033 0.255183 0)
(0.00406389 0.253984 0)
(-0.00739307 0.253781 0)
(-0.0152563 0.253479 0)
(-0.00629143 0.242831 0)
(0.00938749 0.242108 0)
(0.0171946 0.25117 0)
(0.0115932 0.254168 0)
(0.00243683 0.252833 0)
(-9.42597e-05 0.252414 0)
(0.00137962 0.252172 0)
(-0.00646923 0.253214 0)
(-0.0134576 0.251632 0)
(-0.00891838 0.247063 0)
(0.00341011 0.244469 0)
(0.0125093 0.250576 0)
(0.0101119 0.251454 0)
(0.0026749 0.251156 0)
(0.00160526 0.251123 0)
(0.000140297 0.250988 0)
(-0.00483361 0.251032 0)
(-0.00267888 0.249536 0)
(0.00379896 0.249989 0)
(0.00263765 0.250592 0)
(-0.000772148 0.250374 0)
(-2.26927e-05 0.250892 0)
(0.000983091 0.250211 0)
(-0.000653045 0.250308 0)
(-0.00234641 0.250168 0)
(-0.000560852 0.250179 0)
(0.00129565 0.250111 0)
(-0.000261136 0.250212 0)
(-0.000697023 0.250085 0)
(-0.000371913 0.250091 0)
(0.000222258 0.250057 0)
(-4.04753e-05 0.2501 0)
(-4.45728e-05 0.250064 0)
(3.73245e-05 0.250081 0)
(-1.99619e-05 0.250073 0)
(7.37764e-05 0.25007 0)
(-2.97665e-05 0.250075 0)
(5.97069e-05 0.250064 0)
(8.13338e-05 0.250076 0)
(5.36652e-05 0.250065 0)
(0.000136113 0.250077 0)
(6.87868e-05 0.250073 0)
(0.000120796 0.250048 0)
(0.000349816 0.250044 0)
(0.000377901 0.250099 0)
(0.000412191 0.250083 0)
(0.000405389 0.250159 0)
(-0.00032086 0.250087 0)
(0.000332754 0.250479 0)
(0.000904706 0.250157 0)
(-0.000257202 0.250262 0)
(-0.00372679 0.250394 0)
(-0.000189851 0.249831 0)
(0.00343266 0.250496 0)
(-0.0031459 0.250897 0)
(-0.00250859 0.249394 0)
(0.00426323 0.249945 0)
(0.00558757 0.251024 0)
(0.00115442 0.250933 0)
(-0.00108734 0.251018 0)
(-0.00182027 0.251202 0)
(-0.00873211 0.251542 0)
(-0.0126252 0.251397 0)
(-0.00444296 0.244978 0)
(0.00805543 0.246275 0)
(0.0137525 0.251012 0)
(0.00869226 0.253047 0)
(9.46158e-05 0.252138 0)
(0.00150651 0.25227 0)
(-0.00111073 0.252613 0)
(-0.00994041 0.25419 0)
(-0.0166712 0.251641 0)
(-0.00926104 0.243118 0)
(0.00407135 0.241898 0)
(0.0154102 0.251421 0)
(0.00924387 0.254237 0)
(-0.00117898 0.253732 0)
(-0.0106262 0.255604 0)
(-0.0126374 0.247707 0)
(0.000358304 0.237752 0)
(0.0180125 0.249014 0)
(0.00598576 0.255561 0)
(0.00123249 0.245601 0)
(0.015844 0.251621 0)
(0.0079922 0.254484 0)
(0.00138743 0.252617 0)
(-0.00160636 0.254228 0)
(-0.00166613 0.236505 0)
(-0.00162883 0.250064 0)
(-0.00537688 0.252515 0)
(-0.00954905 0.237346 0)
(-0.00180451 0.238393 0)
(0.00121356 0.255223 0)
(-0.00992243 0.238747 0)
(-0.00275236 0.234124 0)
(0.00685286 0.237043 0)
(0.00498542 0.246075 0)
(0.00236954 0.25121 0)
(-0.00808683 0.249349 0)
(-0.00739451 0.234214 0)
(-0.00514593 0.235437 0)
(0.00685526 0.234329 0)
(0.00662295 0.234788 0)
(0.0061481 0.241024 0)
(0.000820087 0.237267 0)
(-0.0017894 0.228893 0)
(-0.00233582 0.228322 0)
(-0.00645934 0.235489 0)
(-0.00943319 0.229434 0)
(-0.00650253 0.231055 0)
(0.00267409 0.231174 0)
(0.00707252 0.223679 0)
(0.00547481 0.228379 0)
(0.00219141 0.224274 0)
(0.00145035 0.217745 0)
(-0.000928242 0.219648 0)
(-0.00298387 0.214914 0)
(-0.00196731 0.219461 0)
(0.00202719 0.216104 0)
(0.00107751 0.213872 0)
(0.000387839 0.21058 0)
(-2.35766e-05 0.208666 0)
(-0.000841779 0.20771 0)
(-0.000742257 0.210179 0)
(-0.0013427 0.206968 0)
(-0.000536401 0.21174 0)
(0.000339965 0.206725 0)
(-0.000397646 0.208934 0)
(-0.000647151 0.206455 0)
(-0.000407942 0.207918 0)
(0.000180538 0.206667 0)
(-7.02389e-05 0.206511 0)
(-4.92348e-05 0.206366 0)
(7.19384e-05 0.206155 0)
(-3.91419e-05 0.20614 0)
(7.87042e-05 0.206328 0)
(-3.24524e-05 0.206187 0)
(6.90071e-05 0.206187 0)
(9.21712e-05 0.20623 0)
(6.14168e-05 0.206155 0)
(0.000165215 0.206264 0)
(5.455e-05 0.206206 0)
(0.000112622 0.206616 0)
(0.000450404 0.206657 0)
(0.000473173 0.206305 0)
(0.00045877 0.206339 0)
(0.000446212 0.207157 0)
(0.000382671 0.206377 0)
(0.00033551 0.207728 0)
(-0.000121581 0.206968 0)
(0.000153093 0.21257 0)
(-0.00149035 0.208091 0)
(-0.000446191 0.218195 0)
(0.00232488 0.212713 0)
(-0.00174023 0.216361 0)
(-0.00070044 0.220421 0)
(0.00347463 0.218369 0)
(0.0032998 0.215609 0)
(0.00175486 0.219515 0)
(-0.00036261 0.218413 0)
(-0.00146299 0.222486 0)
(-0.00435711 0.227746 0)
(-0.00657823 0.221654 0)
(-0.00362003 0.231594 0)
(0.00644986 0.231045 0)
(0.0097642 0.22812 0)
(0.00821762 0.234689 0)
(0.00323965 0.228254 0)
(0.00342915 0.228724 0)
(-3.68245e-05 0.236935 0)
(-0.00420199 0.241153 0)
(-0.00600417 0.234466 0)
(-0.00560176 0.234727 0)
(0.00355371 0.235012 0)
(0.00850216 0.234279 0)
(0.00839254 0.247628 0)
(0.00208419 0.250431 0)
(-0.00381547 0.249536 0)
(-0.00670625 0.238476 0)
(-0.000324013 0.232755 0)
(0.0112107 0.238045 0)
(0.00041018 0.254038 0)
(0.00174255 0.238459 0)
(0.011373 0.239098 0)
(0.00396626 0.251685 0)
(0.00155942 0.249393 0)
(-0.00163129 0.236537 0)
(-0.00490731 0.280199 0)
(-0.00360706 0.289252 0)
(1.24023e-05 0.291478 0)
(-0.00663259 0.280193 0)
(-0.00517583 0.266187 0)
(0.00381192 0.290743 0)
(-0.00493391 0.281448 0)
(-0.00110672 0.258644 0)
(0.00863933 0.26824 0)
(0.00333322 0.28622 0)
(-0.000446923 0.29509 0)
(-0.00599053 0.292761 0)
(-0.00707303 0.281416 0)
(-0.00623174 0.266802 0)
(0.0057923 0.268549 0)
(0.00339653 0.281142 0)
(0.00435605 0.286185 0)
(0.0056857 0.28993 0)
(0.00323417 0.286588 0)
(-0.00752089 0.287739 0)
(-0.00674741 0.288489 0)
(-0.00826727 0.284146 0)
(-0.00660764 0.27527 0)
(0.00221989 0.273993 0)
(0.00742776 0.28374 0)
(0.0036764 0.286553 0)
(0.00365902 0.288297 0)
(0.00426361 0.287626 0)
(-0.00258183 0.287531 0)
(-0.0041418 0.288447 0)
(-0.00178236 0.283954 0)
(0.00165925 0.285599 0)
(0.000868199 0.288209 0)
(0.000610922 0.288448 0)
(0.000366602 0.288507 0)
(-0.00110627 0.288376 0)
(-0.000995616 0.288342 0)
(-0.00122395 0.288416 0)
(-0.000591439 0.287347 0)
(0.00052494 0.288457 0)
(-0.000426677 0.288309 0)
(-0.00069786 0.288488 0)
(-0.00041778 0.288118 0)
(0.000160134 0.288433 0)
(-6.54051e-05 0.288537 0)
(-5.49955e-05 0.288467 0)
(5.0306e-05 0.288549 0)
(-1.7049e-05 0.288552 0)
(8.52302e-05 0.288513 0)
(-4.73098e-05 0.288549 0)
(6.61557e-05 0.2885 0)
(9.22447e-05 0.288531 0)
(7.33567e-05 0.288513 0)
(0.000183393 0.288528 0)
(7.30903e-05 0.28853 0)
(0.000143547 0.288382 0)
(0.000457418 0.288362 0)
(0.00048638 0.2885 0)
(0.000465395 0.288533 0)
(0.000464401 0.288479 0)
(0.000296349 0.288511 0)
(0.000337908 0.288533 0)
(-9.98354e-05 0.288542 0)
(0.000469386 0.287969 0)
(-0.00155522 0.288512 0)
(-0.000486832 0.284907 0)
(0.00233805 0.288198 0)
(-0.00169515 0.288125 0)
(-0.000513841 0.283633 0)
(0.00341158 0.284752 0)
(0.00405946 0.288319 0)
(0.0036357 0.287542 0)
(-0.00262145 0.28738 0)
(-0.00365016 0.288701 0)
(-0.00184357 0.286877 0)
(-0.00702285 0.285502 0)
(-0.00315249 0.274144 0)
(0.0064826 0.274615 0)
(0.00896497 0.283239 0)
(0.00823063 0.28807 0)
(0.00816903 0.288043 0)
(-0.00134849 0.286709 0)
(-0.00521868 0.289897 0)
(-0.00245425 0.286515 0)
(-0.00280451 0.281937 0)
(-0.00466754 0.270161 0)
(0.00488338 0.267427 0)
(0.00810282 0.278137 0)
(0.00736091 0.289813 0)
(0.00313466 0.295034 0)
(-0.00153452 0.29017 0)
(-0.00671314 0.273624 0)
(-0.00164193 0.256959 0)
(0.00796251 0.276022 0)
(-0.00141277 0.291387 0)
(0.00429393 0.266166 0)
(0.00996503 0.279596 0)
(0.00415053 0.289839 0)
(0.00685642 0.292999 0)
(0.00492408 0.285695 0)
(-0.00152419 0.273233 0)
(0.000818004 0.276297 0)
(0.00139647 0.28433 0)
(-0.00155509 0.271165 0)
(-0.00143554 0.256393 0)
(0.00411336 0.284587 0)
(-0.0013335 0.266152 0)
(0.00143281 0.252724 0)
(0.00455116 0.260686 0)
(-0.000679288 0.279172 0)
(-0.00192789 0.290775 0)
(-0.00571706 0.286184 0)
(-0.0046317 0.262406 0)
(-0.00518105 0.255981 0)
(0.00215237 0.25859 0)
(0.000606934 0.263941 0)
(0.00013943 0.269079 0)
(-0.00137047 0.268646 0)
(0.00125803 0.268112 0)
(-0.00564675 0.267568 0)
(-0.00381552 0.267716 0)
(-0.00700974 0.261505 0)
(-0.00406573 0.257712 0)
(0.000606684 0.257759 0)
(0.00223787 0.254843 0)
(0.000515693 0.263371 0)
(0.000333766 0.25862 0)
(0.00139074 0.255249 0)
(-0.00214526 0.258136 0)
(-0.0012212 0.250488 0)
(-0.00220794 0.25206 0)
(3.41845e-05 0.250618 0)
(-0.000159498 0.25079 0)
(-0.000117493 0.247756 0)
(-0.000530153 0.245159 0)
(-0.000996707 0.245054 0)
(-0.000786524 0.24712 0)
(-0.000828329 0.243821 0)
(-0.000565148 0.247385 0)
(-0.00034952 0.24363 0)
(-0.000507831 0.24621 0)
(-0.000732513 0.243488 0)
(-0.000367783 0.244732 0)
(4.29897e-05 0.243704 0)
(-0.000145552 0.243603 0)
(-7.85814e-05 0.243432 0)
(8.67291e-05 0.243201 0)
(-2.46603e-05 0.243202 0)
(8.03762e-05 0.243386 0)
(-6.24802e-05 0.24325 0)
(7.17558e-05 0.243235 0)
(9.55879e-05 0.243295 0)
(8.46209e-05 0.243207 0)
(0.000191889 0.243328 0)
(5.87846e-05 0.243262 0)
(0.000146176 0.243675 0)
(0.000456405 0.243715 0)
(0.00056149 0.243324 0)
(0.000577682 0.243374 0)
(0.000459292 0.244167 0)
(0.000715247 0.243418 0)
(0.000456884 0.244193 0)
(9.76155e-05 0.243978 0)
(0.000463464 0.249721 0)
(-0.000114793 0.244906 0)
(9.2293e-05 0.251903 0)
(0.00174688 0.249758 0)
(-0.000246866 0.253163 0)
(0.000693103 0.253521 0)
(0.00330108 0.251341 0)
(0.00154319 0.251299 0)
(0.00285177 0.257554 0)
(-0.000434601 0.256477 0)
(8.11842e-05 0.257163 0)
(0.000645185 0.263079 0)
(-0.00157125 0.25429 0)
(-0.00048386 0.256929 0)
(0.00419774 0.257573 0)
(0.00763623 0.259452 0)
(0.00536483 0.267035 0)
(0.006298 0.267809 0)
(0.000256693 0.268226 0)
(0.00205984 0.26837 0)
(0.001587 0.269215 0)
(0.000479517 0.264465 0)
(-0.000903234 0.259851 0)
(0.00454332 0.257008 0)
(0.0059964 0.260397 0)
(0.00679967 0.281727 0)
(0.00483375 0.288191 0)
(0.00201724 0.284197 0)
(-0.00149708 0.264643 0)
(-0.00249418 0.250352 0)
(0.00454978 0.263252 0)
(-0.0017475 0.285494 0)
(0.00282871 0.255743 0)
(0.00438793 0.267533 0)
(0.00268128 0.281283 0)
(0.000697682 0.279829 0)
(0.00207851 0.281105 0)
(0.00225806 0.285736 0)
(0.00261352 0.28975 0)
(0.00250169 0.294492 0)
(0.000230885 0.287356 0)
(-0.000976005 0.26489 0)
(0.0045927 0.29436 0)
(-0.000704708 0.286349 0)
(0.00183755 0.260301 0)
(0.00336095 0.273429 0)
(-0.00181551 0.292956 0)
(-0.00256385 0.299478 0)
(-0.00257082 0.297546 0)
(-0.00289197 0.2842 0)
(-0.00478892 0.268465 0)
(0.00198528 0.268674 0)
(0.000660794 0.286179 0)
(0.000391283 0.29082 0)
(-0.00153013 0.291185 0)
(0.000386906 0.292556 0)
(-0.00355007 0.294791 0)
(-0.00298875 0.292352 0)
(-0.00699988 0.288177 0)
(-0.00367665 0.277027 0)
(0.000179631 0.275487 0)
(0.00235152 0.288248 0)
(-0.0010201 0.290983 0)
(0.00255441 0.292233 0)
(0.00142764 0.292539 0)
(-0.00204426 0.292757 0)
(-0.000581567 0.292875 0)
(-0.00199374 0.287852 0)
(0.000154371 0.289594 0)
(-0.000104852 0.293135 0)
(0.000462304 0.293502 0)
(-0.000516806 0.293568 0)
(-0.0015584 0.293562 0)
(-0.000782605 0.293464 0)
(-0.000691756 0.293512 0)
(-0.000555476 0.29204 0)
(-0.0001896 0.293574 0)
(-0.000541025 0.293334 0)
(-0.000600611 0.293619 0)
(-0.000322758 0.293074 0)
(5.07487e-05 0.293552 0)
(-0.00015706 0.29369 0)
(-6.74363e-05 0.29355 0)
(7.09354e-05 0.293703 0)
(-1.19714e-05 0.29371 0)
(7.19984e-05 0.293665 0)
(-7.24214e-05 0.293699 0)
(7.40736e-05 0.293651 0)
(9.2106e-05 0.293681 0)
(8.71782e-05 0.293675 0)
(0.000193038 0.293679 0)
(8.34126e-05 0.293699 0)
(0.000178287 0.293453 0)
(0.000429317 0.293415 0)
(0.000539661 0.293624 0)
(0.000498896 0.293678 0)
(0.000461744 0.29361 0)
(0.000662723 0.293665 0)
(0.000441155 0.293649 0)
(-0.000446835 0.293685 0)
(0.000480612 0.293036 0)
(-0.000117176 0.293547 0)
(7.81859e-05 0.288817 0)
(0.00185995 0.293123 0)
(-0.000260676 0.292913 0)
(0.000665115 0.286871 0)
(0.00336532 0.288874 0)
(0.000624245 0.292579 0)
(0.00226028 0.292841 0)
(0.000704075 0.292445 0)
(-0.00164702 0.292337 0)
(0.00165744 0.291433 0)
(-0.00209054 0.290219 0)
(-0.000149479 0.27574 0)
(0.00375393 0.276059 0)
(0.00758663 0.286695 0)
(0.00392645 0.292019 0)
(0.00398979 0.294287 0)
(0.00112515 0.292708 0)
(0.00224942 0.29109 0)
(0.00119967 0.290845 0)
(0.000399121 0.287231 0)
(-0.000738445 0.271604 0)
(0.00432632 0.268442 0)
(0.0045498 0.280302 0)
(0.0038657 0.293506 0)
(0.00429578 0.300891 0)
(0.003744 0.296308 0)
(2.62011e-05 0.279892 0)
(-0.00243755 0.258605 0)
(0.00335524 0.278641 0)
(-0.00220418 0.295367 0)
(0.00246093 0.264579 0)
(0.00222329 0.284109 0)
(0.00166753 0.293442 0)
(-0.00191185 0.29183 0)
(-0.00058832 0.293686 0)
(0.00285857 0.272122 0)
(0.00430382 0.280554 0)
(0.00349628 0.288025 0)
(0.00206111 0.278782 0)
(0.000504924 0.25756 0)
(0.00343682 0.287661 0)
(-0.000346012 0.271992 0)
(0.00294222 0.255141 0)
(0.000610057 0.266181 0)
(-0.00358143 0.287736 0)
(-0.00362446 0.291046 0)
(-0.00246121 0.289089 0)
(-0.00276903 0.268852 0)
(-0.00318295 0.258322 0)
(-0.000637635 0.260322 0)
(-0.00244022 0.270143 0)
(-0.00270136 0.274727 0)
(-0.00399197 0.273821 0)
(-0.00155474 0.277454 0)
(-0.0034533 0.277428 0)
(-0.0020266 0.275224 0)
(-0.00456959 0.268826 0)
(-0.00258991 0.261401 0)
(-0.00112627 0.261383 0)
(-0.00146199 0.262749 0)
(-0.00274309 0.270999 0)
(-0.00154323 0.265148 0)
(-0.000603262 0.267166 0)
(-0.00192845 0.268793 0)
(-0.000364683 0.260147 0)
(-0.00196003 0.260751 0)
(-0.000928603 0.260001 0)
(-0.00093645 0.260874 0)
(-0.000640303 0.258565 0)
(-0.00096074 0.256797 0)
(-0.00098548 0.256679 0)
(-0.000831317 0.257838 0)
(-0.000669868 0.255619 0)
(-0.000560026 0.257931 0)
(-0.000700056 0.255439 0)
(-0.000568556 0.257762 0)
(-0.000664086 0.255338 0)
(-0.000275181 0.256257 0)
(-9.51361e-05 0.255461 0)
(-0.000226855 0.255452 0)
(-8.39507e-05 0.25532 0)
(6.91294e-05 0.25508 0)
(-7.60539e-06 0.255072 0)
(6.81554e-05 0.255264 0)
(-8.2455e-05 0.255114 0)
(6.72655e-05 0.255103 0)
(9.32108e-05 0.255152 0)
(0.000106883 0.255083 0)
(0.000192476 0.255183 0)
(7.03474e-05 0.255134 0)
(0.000184301 0.255498 0)
(0.00041143 0.255546 0)
(0.000592557 0.255214 0)
(0.000644172 0.255233 0)
(0.000437902 0.255919 0)
(0.000750204 0.255338 0)
(0.00049761 0.25591 0)
(0.00049544 0.255666 0)
(0.000543557 0.260341 0)
(0.000935642 0.256303 0)
(0.000659423 0.26091 0)
(0.00128777 0.260438 0)
(0.000986619 0.263287 0)
(0.00123237 0.261745 0)
(0.00255501 0.260379 0)
(0.00105749 0.261325 0)
(0.00196481 0.267313 0)
(0.00200125 0.268226 0)
(0.00177027 0.264744 0)
(0.00294877 0.27088 0)
(0.0019409 0.263061 0)
(0.00197099 0.261072 0)
(0.002575 0.260988 0)
(0.00490872 0.266472 0)
(0.00284365 0.274829 0)
(0.00382911 0.276846 0)
(0.00277458 0.277519 0)
(0.00472334 0.273969 0)
(0.004192 0.274515 0)
(0.00355401 0.27095 0)
(0.00210097 0.262183 0)
(0.00351318 0.259026 0)
(0.00456257 0.265456 0)
(0.00295669 0.284973 0)
(0.00515415 0.291685 0)
(0.00538856 0.290002 0)
(0.0025724 0.271923 0)
(-0.00173535 0.253249 0)
(0.00214893 0.267215 0)
(-0.000889069 0.28925 0)
(0.001249 0.256521 0)
(0.000244479 0.273485 0)
(0.000221432 0.286977 0)
(-0.00383107 0.283875 0)
(-0.000236742 0.2831 0)
(0.00278184 0.275011 0)
(0.00323079 0.290844 0)
(0.00326993 0.297054 0)
(0.00162849 0.293631 0)
(0.000175106 0.266546 0)
(0.00348079 0.29705 0)
(-0.000269073 0.2881 0)
(0.00197857 0.263494 0)
(-1.47492e-05 0.280603 0)
(-0.00414557 0.296789 0)
(-0.00357935 0.299837 0)
(0.000573081 0.298951 0)
(-0.0012138 0.285367 0)
(-0.00224819 0.267821 0)
(-2.10961e-06 0.270722 0)
(-0.00144591 0.288549 0)
(-0.0044018 0.292017 0)
(-0.00580835 0.291834 0)
(-0.00176713 0.293605 0)
(-0.00144106 0.295921 0)
(-0.00151533 0.293329 0)
(-0.00377362 0.289394 0)
(-0.00211423 0.27652 0)
(-0.00107226 0.275759 0)
(-0.000906147 0.289957 0)
(-0.00324497 0.291921 0)
(-0.000319951 0.292364 0)
(-0.00132897 0.293546 0)
(-0.000653141 0.293887 0)
(0.000373089 0.293584 0)
(-0.00195325 0.288937 0)
(-0.000512527 0.290091 0)
(-0.000726687 0.293945 0)
(-0.000290845 0.294342 0)
(-0.000820933 0.294509 0)
(-0.00108229 0.294526 0)
(-0.000503707 0.294281 0)
(-0.000579361 0.294291 0)
(-0.00057539 0.292768 0)
(-0.000527923 0.294442 0)
(-0.000540576 0.29421 0)
(-0.000507258 0.294448 0)
(-0.000278228 0.293762 0)
(-4.46558e-05 0.294322 0)
(-0.000236918 0.294597 0)
(-4.77431e-05 0.294312 0)
(5.84517e-05 0.29452 0)
(-7.96909e-06 0.29457 0)
(5.78527e-05 0.294525 0)
(-8.11101e-05 0.294579 0)
(6.97624e-05 0.294492 0)
(8.6508e-05 0.294524 0)
(0.000103992 0.294568 0)
(0.000182925 0.294519 0)
(9.21631e-05 0.294567 0)
(0.000201213 0.294262 0)
(0.000400489 0.294181 0)
(0.000541403 0.2944 0)
(0.000599697 0.294537 0)
(0.000477395 0.294445 0)
(0.000705776 0.294531 0)
(0.000487769 0.294466 0)
(-0.000336864 0.294445 0)
(0.000147774 0.293894 0)
(0.000720085 0.29451 0)
(0.000528504 0.289462 0)
(0.00126369 0.293991 0)
(0.000756588 0.293781 0)
(0.00122135 0.287236 0)
(0.00290196 0.289914 0)
(0.000415489 0.293419 0)
(0.000409076 0.293639 0)
(0.00279953 0.293463 0)
(0.0012716 0.292943 0)
(0.00324062 0.292228 0)
(0.00127051 0.291501 0)
(0.00165935 0.276877 0)
(0.0020576 0.275633 0)
(0.00404291 0.287736 0)
(0.00207156 0.292574 0)
(0.00167857 0.295894 0)
(0.00283651 0.293785 0)
(0.00653968 0.291553 0)
(0.00586921 0.292052 0)
(0.00278065 0.289352 0)
(0.0016113 0.273615 0)
(0.00263526 0.267213 0)
(0.00280757 0.281152 0)
(6.02219e-05 0.295745 0)
(0.00398113 0.296842 0)
(0.00563858 0.299748 0)
(0.00281565 0.286201 0)
(-0.000541562 0.262705 0)
(0.00154779 0.279432 0)
(-0.000763595 0.298074 0)
(0.00101698 0.265201 0)
(-0.000664901 0.287593 0)
(-0.00167771 0.296792 0)
(-0.00455324 0.293836 0)
(-0.00122582 0.291304 0)
(0.00189065 0.270128 0)
(0.00262336 0.283994 0)
(0.00245649 0.291838 0)
(0.000904006 0.286848 0)
(0.00090494 0.260042 0)
(0.00106415 0.292127 0)
(-0.000546523 0.277093 0)
(0.00251155 0.261091 0)
(-0.00140885 0.274769 0)
(-0.00453864 0.29226 0)
(-0.00443716 0.291631 0)
(-0.000249707 0.29098 0)
(-0.000649704 0.275284 0)
(-0.000804634 0.263467 0)
(-0.0022738 0.264849 0)
(-0.00369755 0.277853 0)
(-0.00538079 0.281908 0)
(-0.00578506 0.278015 0)
(-0.00333304 0.28017 0)
(-0.00168086 0.28263 0)
(-0.000865815 0.282138 0)
(-0.00234704 0.274848 0)
(-0.0016214 0.266628 0)
(-0.00245511 0.266851 0)
(-0.0029663 0.270222 0)
(-0.00358951 0.276935 0)
(-0.00294973 0.271195 0)
(-0.00239917 0.275219 0)
(-0.00124655 0.275549 0)
(-0.000414447 0.269019 0)
(-0.00148906 0.268501 0)
(-0.00127875 0.26793 0)
(-0.0015619 0.269231 0)
(-0.00103497 0.267624 0)
(-0.00110609 0.266578 0)
(-0.000795292 0.266234 0)
(-0.000774616 0.266755 0)
(-0.000709791 0.265238 0)
(-0.000638689 0.266634 0)
(-0.00083015 0.264999 0)
(-0.000555631 0.266911 0)
(-0.00058429 0.264884 0)
(-0.000228086 0.265526 0)
(-0.000337401 0.265027 0)
(-0.00024672 0.26502 0)
(1.20183e-05 0.264951 0)
(5.40121e-06 0.264762 0)
(-2.80574e-05 0.264748 0)
(8.51002e-05 0.264958 0)
(-7.49413e-05 0.264791 0)
(5.68859e-05 0.264749 0)
(3.84542e-05 0.264798 0)
(0.000154447 0.264746 0)
(0.000202521 0.264886 0)
(-4.31031e-05 0.264804 0)
(0.000228307 0.265053 0)
(0.000486872 0.265117 0)
(0.000598584 0.264804 0)
(0.000675523 0.264966 0)
(0.000528618 0.265322 0)
(0.000749081 0.264965 0)
(0.000485175 0.265507 0)
(0.000755853 0.26525 0)
(0.000379731 0.268666 0)
(0.00142537 0.265924 0)
(0.00114894 0.268625 0)
(0.000954084 0.26902 0)
(0.00189388 0.271382 0)
(0.00146126 0.268805 0)
(0.00168584 0.268335 0)
(0.00117487 0.270539 0)
(0.0013139 0.273753 0)
(0.00293039 0.275637 0)
(0.00326264 0.271923 0)
(0.0038099 0.277092 0)
(0.00359668 0.270729 0)
(0.00344521 0.266205 0)
(0.00149446 0.266495 0)
(0.00253729 0.272335 0)
(0.00144588 0.281693 0)
(0.00190172 0.281614 0)
(0.004158 0.280413 0)
(0.00653658 0.277893 0)
(0.00671994 0.281332 0)
(0.0050506 0.278522 0)
(0.003814 0.266651 0)
(0.00159816 0.264825 0)
(0.00252437 0.271607 0)
(0.000623351 0.287754 0)
(0.00452014 0.290941 0)
(0.00552392 0.294353 0)
(0.00349707 0.28108 0)
(0.000161845 0.258863 0)
(0.00107331 0.27216 0)
(0.000462333 0.293845 0)
(-0.000279755 0.260233 0)
(-0.00108621 0.281651 0)
(-0.00130076 0.293851 0)
(-0.00359623 0.28713 0)
(-0.000190947 0.279884 0)
(0.00188858 0.271042 0)
(0.00184294 0.287121 0)
(0.00181458 0.297378 0)
(0.000649346 0.293697 0)
(0.000710864 0.263121 0)
(9.14684e-05 0.296801 0)
(-0.000721934 0.285079 0)
(0.00141579 0.263267 0)
(-0.00195135 0.283499 0)
(-0.00482169 0.298481 0)
(-0.00343651 0.293745 0)
(0.00101444 0.290879 0)
(-0.00101892 0.283797 0)
(-0.000143493 0.268377 0)
(-0.0014159 0.270957 0)
(-0.00326899 0.287689 0)
(-0.0055079 0.291057 0)
(-0.00572553 0.288278 0)
(-0.00381707 0.289334 0)
(-0.000707432 0.291764 0)
(-0.000259058 0.291429 0)
(-0.00165019 0.28719 0)
(-0.00163494 0.274739 0)
(-0.00184263 0.274364 0)
(-0.00202057 0.287755 0)
(-0.00324945 0.289347 0)
(-0.00236854 0.289099 0)
(-0.00329424 0.290484 0)
(-0.00012389 0.290759 0)
(0.000122203 0.290714 0)
(-0.00143457 0.286234 0)
(-0.000818565 0.287137 0)
(-0.00112485 0.290569 0)
(-0.000684135 0.290913 0)
(-0.000887413 0.291337 0)
(-0.000817183 0.291276 0)
(-0.000784661 0.290961 0)
(-0.000801422 0.29113 0)
(-0.00058793 0.289526 0)
(-0.000751298 0.291131 0)
(-0.000564614 0.290904 0)
(-0.000479113 0.291002 0)
(-0.000300004 0.290594 0)
(-0.000127845 0.291 0)
(-0.000240774 0.29101 0)
(-2.20501e-05 0.290968 0)
(3.75441e-05 0.2914 0)
(-4.36233e-05 0.2912 0)
(5.236e-05 0.291176 0)
(-5.9342e-05 0.291297 0)
(4.11813e-05 0.291061 0)
(5.78966e-05 0.29131 0)
(0.000160089 0.291012 0)
(0.000175171 0.291377 0)
(3.8873e-05 0.291144 0)
(0.000192565 0.290658 0)
(0.000385728 0.290739 0)
(0.000698533 0.291136 0)
(0.000612622 0.291353 0)
(0.000426247 0.291267 0)
(0.000693283 0.291223 0)
(0.000477849 0.291334 0)
(0.000286582 0.29121 0)
(0.000534536 0.290598 0)
(0.00109206 0.290918 0)
(0.000698278 0.286587 0)
(0.000892343 0.290634 0)
(0.00145653 0.290641 0)
(0.00150834 0.284399 0)
(0.00184933 0.286973 0)
(0.000882061 0.290596 0)
(0.00028975 0.290504 0)
(0.00334932 0.290259 0)
(0.00290799 0.289492 0)
(0.00350271 0.289675 0)
(0.0028328 0.288791 0)
(0.00267922 0.275345 0)
(0.0013522 0.274594 0)
(0.00169484 0.285155 0)
(0.000966926 0.290907 0)
(0.00108911 0.290908 0)
(0.00431544 0.288574 0)
(0.00644029 0.287967 0)
(0.00663052 0.290809 0)
(0.00458889 0.28838 0)
(0.00291393 0.274215 0)
(0.000969812 0.268004 0)
(0.00287502 0.280163 0)
(-0.000362498 0.289243 0)
(0.00328234 0.292092 0)
(0.00557097 0.298869 0)
(0.00319597 0.288 0)
(0.000693797 0.264279 0)
(0.00108259 0.27792 0)
(0.000986353 0.298052 0)
(0.000420549 0.265735 0)
(-0.000395398 0.286751 0)
(-0.00197043 0.296742 0)
(-0.00302484 0.289359 0)
(-0.000106635 0.286471 0)
(0.0013781 0.266939 0)
(0.000165793 0.284857 0)
(0.000471473 0.29369 0)
(0.000442608 0.290612 0)
(0.00105563 0.263306 0)
(-0.00208041 0.295607 0)
(-0.00085478 0.278478 0)
(0.00027908 0.26293 0)
(-0.00215594 0.280577 0)
(-0.00409167 0.295849 0)
(-0.00340937 0.28872 0)
(0.000325298 0.293404 0)
(-0.00198389 0.278768 0)
(-0.000561562 0.26448 0)
(-0.00255502 0.269627 0)
(-0.00373841 0.283149 0)
(-0.00574149 0.28589 0)
(-0.00529362 0.280169 0)
(-0.00453691 0.280314 0)
(-0.00103259 0.285063 0)
(-0.000292567 0.285502 0)
(-0.000907934 0.278528 0)
(-0.00074849 0.269479 0)
(-0.00335345 0.26933 0)
(-0.00379402 0.274531 0)
(-0.00295885 0.280527 0)
(-0.00386284 0.275276 0)
(-0.00353545 0.278682 0)
(-0.00118714 0.27837 0)
(-0.000439031 0.274716 0)
(-0.00098799 0.273311 0)
(-0.0014417 0.272829 0)
(-0.00145097 0.274305 0)
(-0.00162568 0.27308 0)
(-0.00139104 0.272484 0)
(-0.000405337 0.272081 0)
(-0.000878038 0.272458 0)
(-0.000650572 0.271526 0)
(-0.000511572 0.27217 0)
(-0.000965706 0.271414 0)
(-0.000341111 0.272805 0)
(-0.000512994 0.271358 0)
(-0.000259938 0.271591 0)
(-0.000347328 0.271321 0)
(-0.000268854 0.271456 0)
(-0.000155543 0.271303 0)
(-0.000116512 0.27113 0)
(-3.2506e-05 0.271158 0)
(-1.46914e-05 0.27132 0)
(7.49207e-05 0.271162 0)
(3.22581e-05 0.271124 0)
(7.36443e-05 0.27116 0)
(0.000121955 0.271151 0)
(0.000206334 0.271234 0)
(0.000260738 0.271137 0)
(0.000291567 0.271536 0)
(0.000366408 0.271379 0)
(0.000310509 0.271226 0)
(0.000418326 0.271222 0)
(0.000802283 0.271608 0)
(0.000746335 0.271262 0)
(0.000437812 0.27178 0)
(0.00110517 0.271472 0)
(0.000465204 0.273744 0)
(0.00121414 0.271729 0)
(0.00129724 0.273318 0)
(0.00113726 0.273949 0)
(0.0018782 0.276067 0)
(0.00172136 0.273126 0)
(0.00109418 0.273199 0)
(0.00122593 0.276113 0)
(0.0015604 0.277053 0)
(0.00338237 0.27886 0)
(0.00395306 0.276415 0)
(0.00344697 0.280534 0)
(0.0046965 0.275132 0)
(0.00393544 0.269634 0)
(0.000904184 0.269469 0)
(0.00196657 0.275592 0)
(0.00141612 0.28473 0)
(0.00137479 0.283887 0)
(0.00460161 0.279636 0)
(0.00538831 0.279746 0)
(0.00679507 0.284901 0)
(0.00521481 0.283659 0)
(0.00413592 0.271433 0)
(0.00182861 0.265078 0)
(0.00320045 0.275482 0)
(0.000569672 0.29226 0)
(0.00291802 0.285622 0)
(0.00471359 0.29657 0)
(0.00293723 0.284481 0)
(0.00206754 0.262387 0)
(0.00113927 0.273542 0)
(0.00179621 0.296772 0)
(-0.000432288 0.263698 0)
(0.000503667 0.284746 0)
(-0.00185977 0.297082 0)
(-0.00358856 0.287745 0)
(-0.00164411 0.280396 0)
(0.000688924 0.27284 0)
(0.000305067 0.293446 0)
(-0.000370833 0.295917 0)
(-0.000906403 0.293614 0)
(0.000700284 0.269694 0)
(-0.00173485 0.301931 0)
(-0.00154466 0.284125 0)
(-0.000778816 0.268457 0)
(-0.00217862 0.287788 0)
(-0.00368302 0.303206 0)
(-0.00432977 0.293545 0)
(2.70089e-05 0.295255 0)
(-0.000361092 0.287052 0)
(-0.000102064 0.272687 0)
(-0.00186485 0.275109 0)
(-0.00322497 0.29221 0)
(-0.00508199 0.293631 0)
(-0.00507106 0.290763 0)
(-0.00462902 0.289323 0)
(-0.00105802 0.291624 0)
(8.85822e-05 0.293502 0)
(-0.000753243 0.288953 0)
(-0.00116569 0.278811 0)
(-0.00232163 0.278136 0)
(-0.00250408 0.288973 0)
(-0.00298486 0.290685 0)
(-0.00324043 0.291732 0)
(-0.00304002 0.291093 0)
(-0.000460499 0.291197 0)
(-0.00052186 0.291605 0)
(-0.000917799 0.288513 0)
(-0.00127881 0.288281 0)
(-0.00149037 0.292294 0)
(-0.000833271 0.292572 0)
(-0.000941877 0.292043 0)
(-0.000727304 0.29211 0)
(-0.000646394 0.292609 0)
(-0.000848851 0.291774 0)
(-0.00069214 0.291282 0)
(-0.00081792 0.29208 0)
(-0.00062012 0.292577 0)
(-0.000281455 0.292298 0)
(-0.000216977 0.291628 0)
(-0.000396912 0.292561 0)
(-0.00029802 0.29242 0)
(0.000133606 0.292452 0)
(-2.236e-05 0.292164 0)
(-0.000144492 0.292318 0)
(9.20051e-05 0.292187 0)
(-9.69261e-05 0.292359 0)
(6.05363e-05 0.292651 0)
(5.28079e-05 0.292158 0)
(0.000132577 0.292627 0)
(0.000191164 0.292124 0)
(-3.96606e-05 0.292665 0)
(0.00028586 0.292155 0)
(0.000492584 0.292278 0)
(0.000526148 0.292493 0)
(0.000641615 0.292121 0)
(0.000598757 0.291945 0)
(0.000675295 0.292768 0)
(0.000447234 0.292159 0)
(0.000495331 0.29273 0)
(0.000319633 0.292257 0)
(0.00114566 0.292379 0)
(0.00107307 0.287684 0)
(0.000996869 0.292383 0)
(0.00179969 0.291885 0)
(0.00167466 0.285826 0)
(0.00129464 0.288755 0)
(0.001415 0.291512 0)
(0.000931002 0.29107 0)
(0.00246446 0.291067 0)
(0.00334351 0.291522 0)
(0.00353438 0.290658 0)
(0.00324831 0.290131 0)
(0.00321524 0.279448 0)
(0.00108467 0.27779 0)