/*--------------------------------*- C++ -*----------------------------------*\
| =========                 |                                                 |
| \\      /  F ield         | OpenFOAM: The Open Source CFD Toolbox           |
|  \\    /   O peration     | Version:  2312                                  |
|   \\  /    A nd           | Website:  www.openfoam.com                      |
|    \\/     M anipulation  |                                                 |
\*---------------------------------------------------------------------------*/
FoamFile
{
    version     2.0;
    format      ascii;
    arch        "LSB;label=32;scalar=64";
    class       volVectorField;
    location    "2";
    object      U.waterMean;
}
// * * * * * * * * * * * * * * * * * * * * * * * * * * * * * * * * * * * * * //

dimensions      [0 1 -1 0 0 0 0];

internalField   nonuniform List<vector> 
50000
(
(0.00707478 -0.0624892 0)
(-0.00222573 -0.0739036 0)
(-0.00114913 -0.0774099 0)
(-0.0118143 -0.0724238 0)
(-0.000449042 -0.0611957 0)
(-0.00326864 -0.0687744 0)
(-0.0149806 -0.0733387 0)
(-0.00247881 -0.0504245 0)
(0.0130902 -0.0575269 0)
(0.0119498 -0.070292 0)
(0.000620762 -0.0755661 0)
(-0.00443264 -0.0786999 0)
(-0.0130291 -0.0838686 0)
(-0.00659802 -0.0605813 0)
(0.0128835 -0.0614513 0)
(0.0206975 -0.0804744 0)
(0.0142587 -0.0846377 0)
(0.0059876 -0.092537 0)
(0.00218 -0.101276 0)
(0.000601271 -0.103518 0)
(-0.00742007 -0.0961099 0)
(-0.013573 -0.0973691 0)
(-0.0115353 -0.0814598 0)
(0.00544003 -0.0771793 0)
(0.015855 -0.100857 0)
(0.011541 -0.103665 0)
(0.00694997 -0.110378 0)
(0.00352184 -0.119535 0)
(0.00167392 -0.117771 0)
(-0.00431836 -0.122937 0)
(-0.00285371 -0.110399 0)
(0.00520556 -0.117718 0)
(0.00353953 -0.1254 0)
(0.000409175 -0.130151 0)
(0.000599617 -0.131788 0)
(0.000602868 -0.134137 0)
(-0.000752057 -0.130803 0)
(-0.00254183 -0.135006 0)
(-0.000714884 -0.126206 0)
(0.00164825 -0.135243 0)
(-0.0003668 -0.13249 0)
(-0.000615242 -0.135751 0)
(-0.000496816 -0.13333 0)
(0.000409275 -0.135379 0)
(-5.14825e-05 -0.135743 0)
(-1.88761e-05 -0.13588 0)
(7.98567e-05 -0.136193 0)
(-5.61729e-05 -0.136215 0)
(9.01513e-05 -0.135956 0)
(-1.73197e-05 -0.136168 0)
(7.25838e-05 -0.136113 0)
(0.000110216 -0.136067 0)
(6.13775e-05 -0.136165 0)
(0.000182117 -0.136016 0)
(7.3477e-05 -0.136119 0)
(0.00013055 -0.135446 0)
(0.000482865 -0.135395 0)
(0.00052111 -0.135924 0)
(0.00038389 -0.135923 0)
(0.000529816 -0.134833 0)
(-0.000462511 -0.135846 0)
(0.000386131 -0.133376 0)
(-0.000135307 -0.135118 0)
(-0.00032482 -0.127507 0)
(-0.00456371 -0.133298 0)
(-0.0013017 -0.113816 0)
(0.00370301 -0.127069 0)
(-0.00439239 -0.12194 0)
(-0.00321351 -0.109541 0)
(0.00538632 -0.112462 0)
(0.00526703 -0.121919 0)
(0.000107768 -0.117979 0)
(-0.00223863 -0.118779 0)
(-0.00570042 -0.113148 0)
(-0.00988547 -0.105234 0)
(-0.0154681 -0.106356 0)
(-0.00720095 -0.0796144 0)
(0.0107299 -0.0803637 0)
(0.0144532 -0.0976102 0)
(0.00986188 -0.0965468 0)
(0.00128709 -0.10308 0)
(-0.000700843 -0.101985 0)
(-0.00403457 -0.0938627 0)
(-0.0123596 -0.0848863 0)
(-0.0192988 -0.0820427 0)
(-0.0122217 -0.0619411 0)
(0.00346694 -0.0600347 0)
(0.0140839 -0.0794793 0)
(0.00683465 -0.0786493 0)
(0.00168708 -0.0765089 0)
(-0.00893935 -0.0680753 0)
(-0.0150215 -0.0628945 0)
(-0.000611527 -0.0510849 0)
(0.0172722 -0.06937 0)
(0.00671276 -0.0672198 0)
(0.00495311 -0.0613537 0)
(0.0150689 -0.0699161 0)
(0.00695299 -0.0724111 0)
(0.00498358 -0.074068 0)
(0.000752571 -0.0848756 0)
(0.00532182 0.0367548 0)
(0.0107282 0.0608766 0)
(-0.0143982 0.0632081 0)
(-0.0196112 0.0530324 0)
(0.00102451 0.0313582 0)
(-0.00891673 0.0599985 0)
(-0.0247881 0.0517818 0)
(-0.0033762 0.0113018 0)
(0.0113622 0.0263324 0)
(0.0215512 0.0577962 0)
(0.0107371 0.0633548 0)
(-0.0186675 0.0653048 0)
(-0.0233154 0.064305 0)
(-0.00901571 0.0265701 0)
(0.00844529 0.0276902 0)
(0.0202413 0.059194 0)
(0.0181246 0.0696989 0)
(0.00206989 0.0760591 0)
(-0.00230983 0.0820699 0)
(0.00199881 0.0855904 0)
(-0.011108 0.0796426 0)
(-0.0207814 0.0776834 0)
(-0.00986704 0.0544308 0)
(0.00261104 0.0476812 0)
(0.0144596 0.0784716 0)
(0.0162168 0.0847142 0)
(0.000455369 0.0911695 0)
(0.00029925 0.0997045 0)
(-0.00131419 0.0982051 0)
(-0.00825053 0.103158 0)
(-0.00418771 0.0872181 0)
(0.00410881 0.0954752 0)
(0.00307618 0.105282 0)
(-0.00315763 0.109767 0)
(-0.00105447 0.111052 0)
(0.00228225 0.113597 0)
(-0.00104239 0.11033 0)
(-0.00377194 0.114364 0)
(-0.000822405 0.104747 0)
(0.00154521 0.114544 0)
(-0.000360613 0.111895 0)
(-0.00138364 0.115107 0)
(-0.000459179 0.112446 0)
(7.52668e-05 0.114647 0)
(-0.000105 0.115115 0)
(-0.000105741 0.115206 0)
(-1.92282e-06 0.115557 0)
(3.70527e-05 0.115574 0)
(0.000129313 0.115303 0)
(-9.37807e-05 0.115527 0)
(9.51567e-05 0.115455 0)
(0.000105402 0.115423 0)
(8.17898e-05 0.115515 0)
(0.000189793 0.115369 0)
(0.000105677 0.115478 0)
(0.00022474 0.114719 0)
(0.000418183 0.114666 0)
(0.000489367 0.115288 0)
(0.000828292 0.115272 0)
(0.000551783 0.114233 0)
(-0.000290853 0.115214 0)
(0.000522857 0.112642 0)
(0.00327376 0.114531 0)
(-0.00031378 0.107083 0)
(-0.0049762 0.112877 0)
(0.000937502 0.0912672 0)
(0.00537276 0.10672 0)
(-0.00352461 0.102149 0)
(-0.00282743 0.0864434 0)
(0.00558621 0.0896107 0)
(0.00944181 0.102243 0)
(0.00322812 0.0983553 0)
(-0.00044601 0.0989841 0)
(0.000628563 0.093898 0)
(-0.0145538 0.0863908 0)
(-0.0153742 0.0851554 0)
(-0.00368048 0.0502336 0)
(0.00893809 0.0525168 0)
(0.0201279 0.0768136 0)
(0.0141718 0.0798407 0)
(0.00016601 0.0854932 0)
(0.00501411 0.0826772 0)
(-0.000917892 0.0771811 0)
(-0.0161758 0.0700705 0)
(-0.0204882 0.0614221 0)
(-0.00765974 0.0302114 0)
(0.00701914 0.0262518 0)
(0.0219944 0.0566004 0)
(0.0196881 0.064914 0)
(-0.00208945 0.063675 0)
(-0.0180523 0.0581483 0)
(-0.0134412 0.0360505 0)
(0.000375425 0.00856123 0)
(0.0226496 0.0432676 0)
(0.00989005 0.0567329 0)
(0.00190464 0.0319855 0)
(0.0203978 0.0490884 0)
(0.0144505 0.0590137 0)
(0.00118768 0.0587225 0)
(-0.00443848 0.0687887 0)
(-0.0118454 -0.0482808 0)
(-0.00523958 -0.0207006 0)
(-0.00683581 -0.015533 0)
(-0.00347832 -0.0509751 0)
(-0.00671024 -0.0422813 0)
(0.00269818 -0.0113144 0)
(0.000906818 -0.0483327 0)
(-0.00128157 -0.0456442 0)
(0.00283388 -0.0445166 0)
(-0.00380803 -0.0357404 0)
(0.00224536 -0.0172565 0)
(-0.00977137 -0.0220008 0)
(0.0025424 -0.0565735 0)
(-0.00415368 -0.0465414 0)
(0.00235739 -0.0469391 0)
(-0.00710983 -0.0533881 0)
(0.000974637 -0.0408389 0)
(-0.00015712 -0.0472782 0)
(-0.00361918 -0.0651795 0)
(-0.00686517 -0.0637719 0)
(-0.0069958 -0.0502738 0)
(-0.00447306 -0.0623753 0)
(-0.00327806 -0.0570451 0)
(0.00154804 -0.0533772 0)
(0.000176471 -0.072756 0)
(0.000511226 -0.0626987 0)
(0.00146829 -0.069252 0)
(0.00137629 -0.0830749 0)
(-0.00231011 -0.0784822 0)
(-0.000858055 -0.0870826 0)
(-0.000976705 -0.0788482 0)
(-0.000190053 -0.0850982 0)
(-0.000659102 -0.0880867 0)
(0.00153996 -0.0939498 0)
(-6.69075e-05 -0.0989227 0)
(-0.00277581 -0.099503 0)
(-0.000830781 -0.0944347 0)
(-0.000163572 -0.10068 0)
(-0.000489744 -0.0927173 0)
(-0.000719382 -0.101056 0)
(-0.000529576 -0.0970333 0)
(-0.000582633 -0.101416 0)
(-0.000426056 -0.0990281 0)
(0.000122948 -0.101081 0)
(-0.000106632 -0.101349 0)
(-5.34515e-05 -0.101576 0)
(0.000106383 -0.101947 0)
(-5.60001e-05 -0.101968 0)
(8.35615e-05 -0.101644 0)
(-3.58203e-05 -0.101887 0)
(7.71604e-05 -0.101865 0)
(0.000100267 -0.101805 0)
(6.60101e-05 -0.101915 0)
(0.000192481 -0.101751 0)
(3.65072e-05 -0.101849 0)
(0.000103704 -0.101129 0)
(0.000533527 -0.101062 0)
(0.00055343 -0.101711 0)
(0.000492218 -0.101648 0)
(0.00046961 -0.10019 0)
(0.00111211 -0.101568 0)
(0.000326082 -0.0998871 0)
(-0.00118594 -0.1005 0)
(0.000583671 -0.090074 0)
(0.00107158 -0.0993833 0)
(-0.000656827 -0.0813933 0)
(0.00103614 -0.0905251 0)
(-0.000146405 -0.0841657 0)
(0.00150285 -0.0771797 0)
(0.00233732 -0.0810944 0)
(0.0006633 -0.0859443 0)
(0.00260331 -0.0783318 0)
(0.000407487 -0.0817927 0)
(-0.000962463 -0.0726424 0)
(0.00010618 -0.0632767 0)
(0.00108406 -0.0773184 0)
(-0.00208161 -0.0550395 0)
(0.00413905 -0.0561408 0)
(0.00469351 -0.0645853 0)
(0.0081526 -0.0517967 0)
(0.00729239 -0.0631056 0)
(0.00554156 -0.0651717 0)
(0.000687109 -0.0479518 0)
(0.00117292 -0.0402672 0)
(0.00773936 -0.0540896 0)
(-0.000641185 -0.0462229 0)
(0.00371783 -0.0454561 0)
(3.40164e-05 -0.0545945 0)
(0.00910048 -0.0276657 0)
(0.00363606 -0.01915 0)
(0.00167321 -0.0263353 0)
(0.000551966 -0.0450046 0)
(-0.00157022 -0.0468767 0)
(0.0021032 -0.0458399 0)
(-0.00240101 -0.014512 0)
(0.00325191 -0.0419381 0)
(0.00514767 -0.0458697 0)
(0.00299639 -0.0203583 0)
(0.00345974 -0.021724 0)
(-0.0009702 -0.0532094 0)
(-0.0104823 0.0360049 0)
(-0.00634685 0.0342393 0)
(0.00505644 0.0348812 0)
(-0.00112444 0.0357251 0)
(-0.00654077 0.0025467 0)
(0.00641565 0.0331674 0)
(0.00434485 0.0368381 0)
(0.00248131 -0.0063781 0)
(0.00833224 0.00904057 0)
(-8.67012e-06 0.0366057 0)
(-0.00233384 0.0424319 0)
(-0.00449145 0.0406316 0)
(-0.00570554 0.0397862 0)
(-0.00630449 0.00763742 0)
(0.00243988 0.0113499 0)
(-0.00339286 0.0393313 0)
(0.000865506 0.0418231 0)
(0.0116605 0.051383 0)
(0.012744 0.0569803 0)
(-0.0153983 0.0586852 0)
(-0.00660611 0.0517639 0)
(-0.00530371 0.0502626 0)
(-0.00537234 0.0303448 0)
(0.00082947 0.0246013 0)
(0.00665051 0.0563704 0)
(0.000287552 0.0561849 0)
(0.00564261 0.0633212 0)
(0.00916232 0.0719291 0)
(-0.00511884 0.0688907 0)
(-0.00579462 0.0760438 0)
(-0.00131446 0.0610307 0)
(0.000639155 0.0692533 0)
(0.000306498 0.0770261 0)
(0.000914281 0.0818549 0)
(0.00110516 0.0856212 0)
(-0.00155982 0.0861194 0)
(-0.00142555 0.0822082 0)
(-0.000830292 0.0871067 0)
(-0.000652835 0.0781585 0)
(0.000818831 0.0874647 0)
(-0.000468654 0.0840154 0)
(-0.000744292 0.087889 0)
(-0.000402169 0.0850234 0)
(9.55534e-05 0.0874374 0)
(-6.46351e-05 0.0879051 0)
(-5.16244e-05 0.0879728 0)
(-3.58833e-08 0.0884385 0)
(4.24389e-05 0.0884542 0)
(9.8013e-05 0.0881385 0)
(-8.35539e-05 0.0883919 0)
(5.60837e-05 0.0882865 0)
(8.50892e-05 0.0882883 0)
(9.38167e-05 0.0883571 0)
(0.000213522 0.0882331 0)
(0.000100675 0.0883312 0)
(0.000201364 0.0874099 0)
(0.000429954 0.0873326 0)
(0.00048921 0.0881335 0)
(0.000462581 0.0881547 0)
(0.000463121 0.0869072 0)
(7.22152e-05 0.0880744 0)
(0.000320552 0.0864354 0)
(-3.92445e-05 0.0872556 0)
(0.00103919 0.078224 0)
(-0.00143233 0.086061 0)
(-0.000445366 0.0649156 0)
(0.00208509 0.0786592 0)
(-0.00137929 0.0738892 0)
(0.000138935 0.0596475 0)
(0.00288886 0.0641824 0)
(0.00498398 0.0749657 0)
(0.00673732 0.0688626 0)
(-0.00670515 0.0705848 0)
(-0.00700753 0.0663636 0)
(0.00257341 0.0572962 0)
(-0.00681635 0.0629023 0)
(-0.00113163 0.0262489 0)
(0.00531033 0.0282753 0)
(0.00642729 0.0496834 0)
(0.00761683 0.051931 0)
(0.0156088 0.0581387 0)
(-0.0107804 0.0572401 0)
(-0.0116803 0.0517784 0)
(0.000934946 0.0420571 0)
(0.00376511 0.0414353 0)
(-0.00150229 0.013896 0)
(0.0058529 0.00755277 0)
(0.0062235 0.0326722 0)
(0.00641462 0.0386561 0)
(0.00442525 0.0425779 0)
(0.00183608 0.0384501 0)
(-0.00476844 0.019024 0)
(-0.00334342 -0.00929812 0)
(0.000795178 0.0248668 0)
(-0.00383994 0.0350295 0)
(0.00629254 0.00212959 0)
(0.00566586 0.0303179 0)
(0.00368338 0.0350312 0)
(0.0117533 0.0377715 0)
(0.0154749 0.0454295 0)
(0.00256686 -0.0151564 0)
(0.00663811 -0.0195139 0)
(0.00414619 -0.00586116 0)
(0.00606605 -0.0203178 0)
(0.00319222 -0.0345764 0)
(0.00446686 -0.00522714 0)
(0.0040382 -0.0302988 0)
(0.0040701 -0.0356167 0)
(-0.00155492 -0.0299681 0)
(-0.00611176 -0.00893468 0)
(-0.00399252 0.000815792 0)
(-0.00467065 -0.00240177 0)
(-0.000962913 -0.0373234 0)
(-0.00337057 -0.0363815 0)
(-0.00292553 -0.0340117 0)
(-0.00363029 -0.0342605 0)
(-0.00636629 -0.0300727 0)
(-0.0100299 -0.0326103 0)
(0.000914675 -0.0273449 0)
(-0.00464407 -0.0309032 0)
(0.00015245 -0.0336168 0)
(-0.00486649 -0.0405083 0)
(-0.000538689 -0.0403195 0)
(-0.00182258 -0.0393554 0)
(-0.00481825 -0.0523787 0)
(-0.00386406 -0.0386881 0)
(-0.00393556 -0.0496721 0)
(-0.0016495 -0.0531782 0)
(-0.001896 -0.0475242 0)
(0.00255585 -0.0641658 0)
(-0.00259846 -0.0571095 0)
(-0.00198377 -0.0611185 0)
(-0.00141436 -0.0629256 0)
(-0.000973582 -0.0684787 0)
(-0.00158078 -0.0730306 0)
(-0.000848796 -0.0726037 0)
(-0.000484079 -0.069292 0)
(-0.000300893 -0.0749043 0)
(-0.000509817 -0.068115 0)
(-0.00136595 -0.0752718 0)
(-0.000584507 -0.0706254 0)
(-0.00074118 -0.0754941 0)
(-0.000291716 -0.0731371 0)
(-9.58571e-05 -0.0751549 0)
(-0.000233486 -0.0753607 0)
(-9.99198e-05 -0.0755729 0)
(0.000125872 -0.0760468 0)
(-2.98418e-05 -0.076056 0)
(7.31479e-05 -0.0757003 0)
(-8.15464e-05 -0.0759608 0)
(7.50574e-05 -0.0759398 0)
(9.57428e-05 -0.075876 0)
(9.52813e-05 -0.0759983 0)
(0.000194877 -0.0758164 0)
(3.4216e-05 -0.0759198 0)
(0.000146771 -0.0751203 0)
(0.000429262 -0.0750234 0)
(0.000629498 -0.0757796 0)
(0.000682184 -0.0757454 0)
(0.000433314 -0.074346 0)
(0.0011756 -0.0756212 0)
(0.000564471 -0.0746031 0)
(0.000310257 -0.0748108 0)
(0.00042541 -0.0641744 0)
(0.0016113 -0.0731419 0)
(0.000845437 -0.0581956 0)
(0.000936861 -0.0645551 0)
(0.00153301 -0.0584673 0)
(0.00215489 -0.054281 0)
(0.00302712 -0.0591244 0)
(-0.00173503 -0.0625915 0)
(0.00213705 -0.0489038 0)
(0.00170788 -0.0504569 0)
(0.00476706 -0.0526372 0)
(0.00415569 -0.0396916 0)
(0.00575347 -0.0547 0)
(0.00318948 -0.0403079 0)
(0.00096276 -0.040135 0)
(0.00539669 -0.043374 0)
(0.00136674 -0.0343871 0)
(0.00523783 -0.0311441 0)
(0.000194555 -0.0270287 0)
(0.0106808 -0.0327187 0)
(0.00783153 -0.0300513 0)
(0.00538103 -0.0341312 0)
(0.00413542 -0.032837 0)
(0.00374571 -0.0352206 0)
(0.00277061 -0.0381498 0)
(0.00550217 -0.00850909 0)
(0.00634477 0.000176072 0)
(0.00680768 -0.00269707 0)
(0.00623778 -0.0264445 0)
(-0.00265746 -0.0383916 0)
(-0.000627116 -0.0305531 0)
(-0.00224344 -0.00307093 0)
(0.000493517 -0.0357055 0)
(-0.00438667 -0.0248472 0)
(0.000464467 -0.00956142 0)
(-0.00672332 -0.0148955 0)
(0.00231501 -0.00343657 0)
(0.00708319 0.0134204 0)
(0.00546336 0.0219892 0)
(0.00404061 0.0233403 0)
(0.00462968 0.023228 0)
(0.000604415 -0.0080405 0)
(0.00502173 0.0224372 0)
(0.000527116 0.0253843 0)
(0.00285897 -0.0125544 0)
(0.000233701 0.00592644 0)
(-0.00429545 0.0257546 0)
(-0.00344929 0.0294321 0)
(0.000951846 0.0269656 0)
(0.000565721 0.0245143 0)
(-0.00309393 -0.00253018 0)
(0.000227976 -0.0015446 0)
(0.000290261 0.0269599 0)
(0.000898043 0.03106 0)
(-0.00154244 0.0331663 0)
(-0.000888505 0.0335961 0)
(-0.000213726 0.039049 0)
(-0.00161469 0.0355358 0)
(-0.0063645 0.0324498 0)
(-0.00239244 0.0135284 0)
(-0.00102937 0.0105992 0)
(0.00209165 0.0403262 0)
(-0.00367919 0.0365684 0)
(0.00618041 0.0445748 0)
(0.00160146 0.0479207 0)
(-0.00185349 0.0452635 0)
(0.000685272 0.0549091 0)
(-0.00140229 0.0419151 0)
(0.000128471 0.0471544 0)
(-9.5176e-05 0.0546485 0)
(0.00136009 0.0588553 0)
(-0.000496127 0.0621361 0)
(-0.00247231 0.061947 0)
(-0.000742933 0.0594111 0)
(-0.00035614 0.0633049 0)
(-0.000493765 0.0557961 0)
(0.000105117 0.0637223 0)
(-0.000578805 0.0601794 0)
(-0.000306067 0.0639918 0)
(-0.000216198 0.0611719 0)
(5.43612e-05 0.0635702 0)
(-0.000185185 0.0640139 0)
(-3.68858e-05 0.0639122 0)
(3.74545e-05 0.0645322 0)
(2.06663e-05 0.0645334 0)
(5.38964e-05 0.0642174 0)
(-9.283e-05 0.0644568 0)
(7.54922e-05 0.0643497 0)
(7.89387e-05 0.0643702 0)
(8.53839e-05 0.0644398 0)
(0.000185076 0.0643199 0)
(0.000121005 0.0644294 0)
(0.000229717 0.0633784 0)
(0.000344634 0.0632615 0)
(0.000466078 0.0641959 0)
(0.000325482 0.0642841 0)
(0.000438238 0.0631886 0)
(0.000475244 0.0641736 0)
(0.000370836 0.0633323 0)
(-0.00142058 0.0635549 0)
(0.000479181 0.0553381 0)
(-5.18684e-05 0.0622274 0)
(0.000217512 0.0438252 0)
(0.00195431 0.0556562 0)
(-0.000194714 0.051552 0)
(0.00077461 0.0382062 0)
(0.00299479 0.0450201 0)
(-0.00116574 0.0533848 0)
(0.00138111 0.0459561 0)
(0.00246219 0.0462434 0)
(-0.00457017 0.0467342 0)
(0.00326756 0.0377728 0)
(-0.00271679 0.0449593 0)
(0.00126678 0.01196 0)
(0.00241739 0.0118995 0)
(0.006706 0.0315732 0)
(0.00133558 0.0352777 0)
(0.000364638 0.0391883 0)
(0.00234817 0.0337348 0)
(0.00234638 0.0330484 0)
(6.14603e-05 0.0312629 0)
(0.000662887 0.0285299 0)
(0.0010089 0.00193301 0)
(0.00333725 -0.00323882 0)
(0.00155904 0.0182642 0)
(6.90203e-05 0.0241026 0)
(0.00365884 0.0292075 0)
(0.00632878 0.0273892 0)
(0.00339508 0.0144628 0)
(-0.00161617 -0.0141313 0)
(0.00112803 0.0123568 0)
(-0.00287184 0.0245939 0)
(0.000971788 -0.00904231 0)
(-0.00204533 0.0196876 0)
(-0.00012351 0.0237264 0)
(-0.00676644 0.0250044 0)
(-0.00403818 0.0236865 0)
(0.00322524 -0.0198574 0)
(0.00657175 -0.00713454 0)
(0.00507449 0.00267064 0)
(0.00428701 -0.00687954 0)
(0.00196022 -0.0277023 0)
(0.00220459 0.00269226 0)
(0.000187868 -0.0200517 0)
(0.00282844 -0.0284877 0)
(-0.00309151 -0.0181481 0)
(-0.0060023 0.00248416 0)
(-0.00486034 0.00601964 0)
(-0.00143704 0.00305276 0)
(-0.0020927 -0.0231589 0)
(-0.000225094 -0.0286393 0)
(-0.00358652 -0.0259646 0)
(-0.00702976 -0.0231186 0)
(-0.00737911 -0.0183353 0)
(-0.00720404 -0.0197322 0)
(-0.00396942 -0.0140309 0)
(-0.00291866 -0.0161583 0)
(-0.000131453 -0.0176404 0)
(-0.000870906 -0.026503 0)
(-0.000759101 -0.0301119 0)
(-0.0029887 -0.029246 0)
(-0.0067063 -0.0376837 0)
(-0.00526955 -0.0250723 0)
(-0.00714406 -0.0368769 0)
(-0.00301997 -0.0319536 0)
(-0.00164017 -0.0298214 0)
(-5.07455e-05 -0.0459827 0)
(-0.00185417 -0.0404798 0)
(-0.00220236 -0.0431073 0)
(-0.00193925 -0.0447552 0)
(-0.00194213 -0.0489041 0)
(-0.00143208 -0.0518039 0)
(-0.000252475 -0.0521017 0)
(-0.000828855 -0.050412 0)
(-0.000617565 -0.0542507 0)
(-0.000542563 -0.0490826 0)
(-0.00128345 -0.054603 0)
(-0.000578266 -0.0503825 0)
(-0.00070006 -0.0548265 0)
(-0.000201328 -0.0527742 0)
(-0.000264076 -0.0545551 0)
(-0.000299972 -0.0546676 0)
(-9.10907e-05 -0.0547569 0)
(5.99057e-05 -0.0553087 0)
(9.96504e-07 -0.0553029 0)
(6.21297e-05 -0.0549172 0)
(-9.48624e-05 -0.0552062 0)
(5.4206e-05 -0.0551805 0)
(9.06187e-05 -0.0551428 0)
(0.000129087 -0.055238 0)
(0.000182021 -0.055074 0)
(4.20442e-05 -0.0551731 0)
(0.000185176 -0.0543813 0)
(0.000365683 -0.0542556 0)
(0.000642141 -0.0550035 0)
(0.000789941 -0.0550157 0)
(0.000380073 -0.0538757 0)
(0.000820436 -0.0548389 0)
(0.000526504 -0.0539119 0)
(0.00160191 -0.0543541 0)
(0.00058048 -0.0455624 0)
(0.00220318 -0.0527122 0)
(0.00134529 -0.0409445 0)
(0.000475467 -0.045327 0)
(0.00252077 -0.0400573 0)
(0.00187381 -0.0376759 0)
(0.00146609 -0.0420231 0)
(0.00155178 -0.0434475 0)
(0.00134434 -0.0329182 0)
(0.0036838 -0.0301104 0)
(0.0062658 -0.0373513 0)
(0.0047152 -0.0255606 0)
(0.00736849 -0.0385986 0)
(0.00458135 -0.0302328 0)
(0.000635158 -0.0300878 0)
(0.000827726 -0.0294004 0)
(0.000534241 -0.0180605 0)
(0.00325589 -0.017221 0)
(0.00474519 -0.0140679 0)
(0.00788141 -0.0193661 0)
(0.00865823 -0.0188632 0)
(0.00816836 -0.0223829 0)
(0.00547647 -0.0248053 0)
(0.00141679 -0.0273865 0)
(0.00375864 -0.0259969 0)
(0.00107754 -0.00105752 0)
(0.0056459 0.0039944 0)
(0.00739304 0.00538373 0)
(0.00619816 -0.0128686 0)
(0.000227801 -0.0302001 0)
(0.000299289 -0.021633 0)
(0.000341421 0.00481901 0)
(-0.00035454 -0.0293604 0)
(-0.0030218 -0.0148929 0)
(-0.0021791 0.0026257 0)
(-0.00589553 -0.00159209 0)
(0.00113535 -0.00547827 0)
(0.00195625 -0.00344189 0)
(0.00147281 0.0137903 0)
(0.00310726 0.0192663 0)
(0.00154923 0.0197211 0)
(0.000173534 -0.012773 0)
(0.00287062 0.0194415 0)
(-9.5655e-05 0.017382 0)
(0.000840299 -0.0150203 0)
(-0.00164603 0.00702526 0)
(-0.00513877 0.0214381 0)
(-0.00353768 0.0203159 0)
(0.00406362 0.0196869 0)
(0.00147308 0.0149679 0)
(-0.000745513 -0.00770338 0)
(-0.000363081 -0.00568235 0)
(5.33886e-05 0.0197805 0)
(-0.00655811 0.0225913 0)
(-0.00839538 0.0224882 0)
(-0.00190789 0.0221011 0)
(0.00163643 0.0267575 0)
(-0.00119438 0.0242017 0)
(-0.00216489 0.0222794 0)
(-0.00126137 0.00472638 0)
(-0.00126643 0.00329006 0)
(-7.94118e-05 0.0297899 0)
(-0.00404884 0.0251357 0)
(0.00192546 0.0322237 0)
(-0.00223768 0.0318409 0)
(0.00114189 0.0310216 0)
(0.00164694 0.0394583 0)
(-0.00169171 0.0290565 0)
(-3.92502e-05 0.0319302 0)
(-0.000402288 0.0391632 0)
(0.000271053 0.0423148 0)
(-0.000545197 0.0444691 0)
(-0.00118261 0.0446519 0)
(0.000102006 0.0431612 0)
(-0.000336605 0.0456502 0)
(-0.000562301 0.0398622 0)
(-0.000197557 0.0460722 0)
(-0.000457162 0.0431662 0)
(-0.000203566 0.0462171 0)
(-0.000266381 0.0437567 0)
(3.81231e-05 0.0459024 0)
(-0.000255203 0.0463317 0)
(2.37977e-05 0.0460073 0)
(3.62327e-05 0.0467536 0)
(-4.32089e-06 0.0467439 0)
(3.81231e-05 0.0464285 0)
(-7.6908e-05 0.0466809 0)
(7.12174e-05 0.0465317 0)
(6.75026e-05 0.0465999 0)
(9.15943e-05 0.0466306 0)
(0.000155641 0.0465723 0)
(0.0001202 0.0466598 0)
(0.000220061 0.0455314 0)
(0.000354931 0.0453785 0)
(0.000414536 0.0463684 0)
(0.000487051 0.0466025 0)
(0.000522797 0.0457008 0)
(0.000566103 0.046459 0)
(0.000435356 0.0458182 0)
(-0.00177573 0.0460592 0)
(-0.00054556 0.0396394 0)
(0.000321898 0.0450212 0)
(0.000430329 0.0297226 0)
(0.0011655 0.0396498 0)
(0.000374287 0.036365 0)
(0.00125954 0.02432 0)
(0.00309408 0.0314323 0)
(-0.000719902 0.03773 0)
(-0.00189633 0.0321359 0)
(0.00381022 0.0305819 0)
(0.0002909 0.0334656 0)
(0.0035847 0.0259056 0)
(0.000112212 0.0324393 0)
(0.00183289 0.00498689 0)
(0.00116883 0.00372174 0)
(0.00231145 0.0213535 0)
(0.0012172 0.0237043 0)
(-0.00162777 0.0266867 0)
(0.00273139 0.0221743 0)
(0.00904646 0.0219838 0)
(0.00790133 0.0228533 0)
(0.00171237 0.0204558 0)
(0.0021072 -0.00195384 0)
(0.00171345 -0.00867408 0)
(9.0062e-05 0.0105465 0)
(-0.00377167 0.0171954 0)
(0.00292353 0.0189554 0)
(0.00595776 0.0224602 0)
(0.00329114 0.013711 0)
(0.00140658 -0.0141649 0)
(0.000556461 0.0052712 0)
(-0.000500594 0.0205593 0)
(9.93353e-05 -0.0120145 0)
(-0.0021875 0.0153874 0)
(-0.00401816 0.0210095 0)
(-0.00506262 0.0160434 0)
(-0.00188249 0.0126179 0)
(0.00065522 -0.018289 0)
(0.00149614 -0.00279502 0)
(0.00142227 0.00678032 0)
(0.00011857 0.00159915 0)
(0.00159835 -0.0252581 0)
(-0.00165695 0.0074568 0)
(-0.000938434 -0.0131264 0)
(0.00195577 -0.0232108 0)
(-0.00325711 -0.0103427 0)
(-0.00497736 0.00908258 0)
(-0.00524736 0.00380057 0)
(3.89261e-05 0.00427841 0)
(0.000266008 -0.013224 0)
(0.00106244 -0.0228709 0)
(-0.00447402 -0.020618 0)
(-0.00679772 -0.0118021 0)
(-0.00691033 -0.00717898 0)
(-0.00573378 -0.0145273 0)
(-0.00548989 -0.0120391 0)
(-0.00139793 -0.00845602 0)
(0.000132251 -0.00777591 0)
(-7.17255e-05 -0.0182312 0)
(-0.000994718 -0.0228887 0)
(-0.00391661 -0.0221636 0)
(-0.00566547 -0.0269794 0)
(-0.00403473 -0.0164479 0)
(-0.00650254 -0.0274203 0)
(-0.00379141 -0.0204144 0)
(-0.00178644 -0.0203854 0)
(-0.00142121 -0.031663 0)
(-0.000835561 -0.0288367 0)
(-0.00212778 -0.0306454 0)
(-0.00257386 -0.0317294 0)
(-0.00189011 -0.0348466 0)
(-0.00136686 -0.0366848 0)
(-0.000387905 -0.0374772 0)
(-0.00107128 -0.0363993 0)
(-0.000906312 -0.0387416 0)
(-0.000702818 -0.0351013 0)
(-0.00115934 -0.0391929 0)
(-0.000547739 -0.03573 0)
(-0.000634619 -0.0393426 0)
(-0.000155165 -0.0377515 0)
(-0.00070637 -0.0391346 0)
(-0.000238667 -0.0392465 0)
(0.000115396 -0.0392004 0)
(-7.2696e-05 -0.0397651 0)
(-5.39503e-05 -0.0397363 0)
(0.000122615 -0.0393658 0)
(-6.46688e-05 -0.039654 0)
(3.44063e-05 -0.0396552 0)
(-3.35911e-05 -0.0395963 0)
(0.000220588 -0.0396932 0)
(0.000219759 -0.0395441 0)
(-0.000246451 -0.0396511 0)
(0.000251708 -0.0388484 0)
(0.000592337 -0.0387383 0)
(0.000659216 -0.0395024 0)
(0.000731614 -0.0395167 0)
(0.000572456 -0.0386783 0)
(0.000769786 -0.0393661 0)
(0.000434262 -0.03834 0)
(0.00209206 -0.038838 0)
(0.000660587 -0.0327706 0)
(0.00224167 -0.038076 0)
(0.00184643 -0.0290446 0)
(0.000477997 -0.0320945 0)
(0.00329132 -0.0276794 0)
(0.00168377 -0.0267469 0)
(1.17317e-05 -0.0299898 0)
(0.0020617 -0.0286173 0)
(0.00234935 -0.0236016 0)
(0.00304608 -0.0196606 0)
(0.00583463 -0.0261566 0)
(0.00451186 -0.0163612 0)
(0.00663887 -0.027258 0)
(0.00533564 -0.0232459 0)
(0.000732468 -0.0227238 0)
(0.000108926 -0.0214004 0)
(0.000504442 -0.00816817 0)
(0.00156932 -0.00990287 0)
(0.0059178 -0.0124092 0)
(0.00638018 -0.0144174 0)
(0.00805053 -0.00832056 0)
(0.00809098 -0.0109634 0)
(0.00600203 -0.0192122 0)
(0.000156164 -0.0210776 0)
(0.00207675 -0.0165593 0)
(7.79514e-05 0.00181516 0)
(0.00474477 0.00176523 0)
(0.00546848 0.00953862 0)
(0.00452234 -0.00561417 0)
(0.00131712 -0.0243451 0)
(0.00054897 -0.0156285 0)
(0.00189799 0.00962756 0)
(-0.00128902 -0.0241846 0)
(-0.00181269 -0.00565336 0)
(-0.00138683 0.00918989 0)
(-0.00253711 0.000616151 0)
(0.00067727 -0.00877575 0)
(0.000579774 -0.00942491 0)
(1.75824e-05 0.00928563 0)
(0.00107856 0.0175145 0)
(0.000357368 0.015747 0)
(0.000610306 -0.0145861 0)
(-0.00156043 0.0192718 0)
(-0.000939366 0.0091165 0)
(-0.00087924 -0.0157054 0)
(-0.00281771 0.00871788 0)
(-0.0048775 0.0199118 0)
(-0.00193497 0.0139894 0)
(0.00183067 0.0126419 0)
(-0.00134223 0.00929699 0)
(0.000650657 -0.00862934 0)
(-0.000910921 -0.0057975 0)
(-0.00270254 0.0146514 0)
(-0.00536257 0.0167386 0)
(-0.00528982 0.0161143 0)
(-0.00435355 0.0153596 0)
(0.000241294 0.0180622 0)
(0.000479557 0.0177218 0)
(-0.000380081 0.0161242 0)
(-0.00123334 0.000390117 0)
(-0.00158407 -0.0009709 0)
(-0.000511049 0.0216263 0)
(-0.00260061 0.0180476 0)
(-0.00117605 0.0239169 0)
(-0.00446465 0.021782 0)
(0.00140667 0.0220751 0)
(0.00099507 0.0280647 0)
(-0.00118221 0.0201353 0)
(-0.000244593 0.0219166 0)
(-0.000392159 0.0281977 0)
(-7.64642e-05 0.0304213 0)
(-0.000500532 0.0319407 0)
(-0.000829348 0.0322065 0)
(-0.000783357 0.0313512 0)
(-0.000874168 0.0326364 0)
(-0.000458683 0.0283269 0)
(-0.000587018 0.0330799 0)
(-0.000547214 0.0309585 0)
(-0.000281667 0.033128 0)
(-0.00040581 0.0312684 0)
(0.000234518 0.0329539 0)
(-0.000223215 0.0332698 0)
(-8.33956e-05 0.0328988 0)
(8.98322e-05 0.0336847 0)
(-6.68049e-05 0.0336211 0)
(-6.27041e-06 0.033342 0)
(-2.91831e-05 0.0336037 0)
(1.07958e-05 0.0334629 0)
(8.56155e-05 0.0335014 0)
(0.000159859 0.0335087 0)
(0.00011937 0.033552 0)
(0.000176513 0.0335981 0)
(0.000123147 0.032322 0)
(0.000184429 0.0322786 0)
(0.000832228 0.0333159 0)
(0.000468182 0.0334872 0)
(0.000223268 0.0328598 0)
(0.000563287 0.0334387 0)
(0.000442105 0.0328542 0)
(-0.000506383 0.0331456 0)
(0.000788398 0.0287914 0)
(0.000491427 0.0323687 0)
(7.4982e-05 0.0202695 0)
(0.000756025 0.0284559 0)
(0.000715248 0.0260374 0)
(0.00157244 0.0158246 0)
(0.00190244 0.0218171 0)
(0.000367636 0.0262818 0)
(-0.00120683 0.0233321 0)
(0.00379961 0.0210147 0)
(0.00213359 0.0239371 0)
(0.00284608 0.0184399 0)
(0.00147749 0.023264 0)
(0.00207625 0.00129321 0)
(0.000950675 -0.000132541 0)
(0.000227789 0.0150478 0)
(0.000340323 0.0173453 0)
(0.000405745 0.0181751 0)
(0.00437366 0.0152282 0)
(0.00589362 0.015418 0)
(0.00612598 0.0166334 0)
(0.00395362 0.0151258 0)
(0.00221492 -0.00189889 0)
(0.000608697 -0.0103255 0)
(0.00284951 0.00602241 0)
(-0.00100113 0.0117669 0)
(0.00115844 0.012189 0)
(0.0051893 0.0200258 0)
(0.00272554 0.0129904 0)
(0.00194006 -0.0134487 0)
(0.00132584 0.000638674 0)
(0.00180827 0.0195671 0)
(0.000650818 -0.0117776 0)
(0.000989112 0.0112052 0)
(-0.00277701 0.0186771 0)
(-0.00169238 0.010782 0)
(5.84217e-05 0.00800223 0)
(0.00111682 -0.0164431 0)
(-0.00157612 0.000256445 0)
(-0.00178641 0.0088089 0)
(-0.00022143 0.00534715 0)
(0.00107803 -0.0209196 0)
(-0.00443834 0.0117154 0)
(-0.00140946 -0.0101815 0)
(-0.00157144 -0.0190379 0)
(-0.00218436 -0.00436226 0)
(-0.00326776 0.0114101 0)
(-0.00367648 0.00168 0)
(-0.000348603 0.00743536 0)
(-0.00329539 -0.00873445 0)
(-0.00116172 -0.0200593 0)
(-0.00340403 -0.0149628 0)
(-0.00429974 -0.00384669 0)
(-0.00598509 -0.00121659 0)
(-0.00448056 -0.00990476 0)
(-0.00585066 -0.0103148 0)
(-0.00146062 -0.00539492 0)
(-0.000138514 -0.00260046 0)
(0.000268113 -0.0116476 0)
(0.000241847 -0.0176552 0)
(-0.00477758 -0.017365 0)
(-0.00598628 -0.0191218 0)
(-0.00250732 -0.0098318 0)
(-0.00580237 -0.0191931 0)
(-0.00372418 -0.0139256 0)
(-0.0024882 -0.014882 0)
(-0.00111636 -0.0211126 0)
(-0.000349138 -0.0204916 0)
(-0.00214677 -0.0216795 0)
(-0.0017296 -0.0221509 0)
(-0.0028199 -0.0245152 0)
(-0.00194609 -0.0257615 0)
(0.00019523 -0.0263606 0)
(-0.000928395 -0.0257395 0)
(-0.000461145 -0.0272932 0)
(-0.000369981 -0.0249804 0)
(-0.00118479 -0.0275886 0)
(8.31243e-06 -0.0251304 0)
(-0.000508191 -0.0277713 0)
(-0.000185904 -0.0268097 0)
(-0.000610319 -0.0276743 0)
(-0.000291847 -0.0277031 0)
(-0.000328326 -0.0276527 0)
(-0.000333659 -0.0281113 0)
(-1.94452e-05 -0.0280642 0)
(-9.81727e-05 -0.0277092 0)
(0.000257492 -0.027997 0)
(1.60873e-05 -0.0280572 0)
(9.09706e-05 -0.0279729 0)
(6.00576e-05 -0.0280669 0)
(0.000241341 -0.0278974 0)
(0.000559659 -0.0280673 0)
(0.000414428 -0.02726 0)
(0.00032543 -0.0273504 0)
(-0.000260449 -0.0279566 0)
(0.00011866 -0.0277274 0)
(0.00128916 -0.0272395 0)
(0.000774622 -0.0279281 0)
(0.000338998 -0.026887 0)
(0.0021008 -0.0275716 0)
(0.00032213 -0.0233049 0)
(0.00120669 -0.0268473 0)
(0.00195693 -0.0202779 0)
(0.00145778 -0.0227911 0)
(0.00228635 -0.0190532 0)
(0.00193057 -0.0189292 0)
(3.19423e-05 -0.0212724 0)
(0.00157043 -0.0184653 0)
(0.00319723 -0.0170671 0)
(0.00325751 -0.0135307 0)
(0.00520539 -0.0176866 0)
(0.00332037 -0.00994848 0)
(0.00705172 -0.0190404 0)
(0.00506327 -0.0179326 0)
(0.000392462 -0.0171422 0)
(0.0022469 -0.0155269 0)
(0.00177607 -0.00346591 0)
(0.001626 -0.00658918 0)
(0.00475976 -0.0107971 0)
(0.00373235 -0.0103618 0)
(0.00676131 -0.00270084 0)
(0.00587384 -0.00345089 0)
(0.00528688 -0.0137066 0)
(0.00284892 -0.0183189 0)
(0.0036042 -0.0122205 0)
(0.00147587 0.00672765 0)
(0.002914 -0.000313935 0)
(0.00357677 0.0114266 0)
(0.00249438 6.92923e-05 0)
(0.00378902 -0.0206885 0)
(0.00127987 -0.0126708 0)
(0.0028046 0.0128182 0)
(-0.0014605 -0.0210208 0)
(0.00146555 0.00145225 0)
(-0.00171802 0.01483 0)
(-0.00415983 0.000507825 0)
(-0.0028119 -0.00816166 0)
(-0.000127951 -0.0109272 0)
(0.000323348 0.0108811 0)
(-0.00114358 0.0139571 0)
(-0.00205999 0.0110682 0)
(-0.000160976 -0.0133901 0)
(-0.00153318 0.0206121 0)
(-0.0022376 0.00294602 0)
(-0.00232859 -0.0159683 0)
(-0.00223014 0.00698257 0)
(-0.00302246 0.0197292 0)
(-0.00511722 0.00977017 0)
(-0.00112731 0.0106286 0)
(0.00185524 0.00679803 0)