/*--------------------------------*- C++ -*----------------------------------*\
| =========                 |                                                 |
| \\      /  F ield         | OpenFOAM: The Open Source CFD Toolbox           |
|  \\    /   O peration     | Version:  2312                                  |
|   \\  /    A nd           | Website:  www.openfoam.com                      |
|    \\/     M anipulation  |                                                 |
\*---------------------------------------------------------------------------*/
FoamFile
{
    version     2.0;
    format      ascii;
    arch        "LSB;label=32;scalar=64";
    class       volVectorField;
    location    "2";
    object      U.water;
}
// * * * * * * * * * * * * * * * * * * * * * * * * * * * * * * * * * * * * * //

dimensions      [0 1 -1 0 0 0 0];

internalField   nonuniform List<vector> 
50000
(
(0.0112291 -0.0599071 0)
(-0.00680682 -0.0683186 0)
(0.00128525 -0.0805931 0)
(-0.0144473 -0.0761837 0)
(-0.00780562 -0.0760923 0)
(-0.020648 -0.0609876 0)
(-0.0260953 -0.058383 0)
(-0.0125422 -0.0398327 0)
(0.00905482 -0.0453466 0)
(0.00636382 -0.0577757 0)
(-0.00946596 -0.0623791 0)
(-0.016678 -0.066134 0)
(-0.0274273 -0.0634112 0)
(-0.00665817 -0.0418303 0)
(0.0185101 -0.0424468 0)
(0.0409079 -0.053238 0)
(0.0364001 -0.0669994 0)
(0.0157273 -0.0643824 0)
(-0.000430555 -0.0719144 0)
(-0.00678951 -0.0659318 0)
(-0.029945 -0.07157 0)
(-0.0358534 -0.0710294 0)
(-0.0176479 -0.0480073 0)
(0.0103097 -0.0484011 0)
(0.0378113 -0.0591666 0)
(0.0383788 -0.0900906 0)
(0.0230912 -0.0870531 0)
(0.00996546 -0.0945192 0)
(0.000177996 -0.0914465 0)
(-0.021056 -0.115665 0)
(-0.0117209 -0.0633877 0)
(0.0243459 -0.0784267 0)
(0.0219876 -0.117593 0)
(0.00714998 -0.137603 0)
(0.00720956 -0.156021 0)
(0.00375553 -0.160579 0)
(-0.00260274 -0.146361 0)
(-0.0135297 -0.169397 0)
(-0.00219627 -0.116023 0)
(0.0114637 -0.171546 0)
(-0.00046686 -0.152996 0)
(-0.00177165 -0.175312 0)
(-0.00268959 -0.158769 0)
(0.00305843 -0.170811 0)
(0.000851618 -0.174589 0)
(7.09494e-05 -0.177994 0)
(0.00038748 -0.179063 0)
(-0.000372926 -0.179131 0)
(0.000152248 -0.178612 0)
(8.7507e-05 -0.179253 0)
(0.000251446 -0.178526 0)
(0.000494021 -0.179035 0)
(0.000389148 -0.179013 0)
(0.00054986 -0.178928 0)
(0.000227428 -0.178512 0)
(4.80298e-05 -0.172843 0)
(0.00252611 -0.172351 0)
(0.00240955 -0.177517 0)
(0.00104358 -0.178472 0)
(0.00224287 -0.171642 0)
(-0.00376142 -0.177846 0)
(0.000237003 -0.165757 0)
(-0.00391417 -0.167644 0)
(-0.00568443 -0.131855 0)
(-0.0229663 -0.155725 0)
(-0.00880343 -0.0768184 0)
(0.0135854 -0.12798 0)
(-0.0186548 -0.10013 0)
(-0.0160965 -0.0703997 0)
(0.0191879 -0.0661855 0)
(0.0251886 -0.111063 0)
(0.00625172 -0.093059 0)
(-0.00639541 -0.0939669 0)
(-0.0162791 -0.0861318 0)
(-0.0346978 -0.0853629 0)
(-0.0411345 -0.072003 0)
(-0.0141196 -0.0526156 0)
(0.0143721 -0.0457776 0)
(0.0408972 -0.0588556 0)
(0.0375759 -0.0716441 0)
(0.0181506 -0.0651528 0)
(0.00689157 -0.073536 0)
(-0.00190201 -0.0637764 0)
(-0.0261126 -0.0668835 0)
(-0.0327124 -0.0657713 0)
(-0.0196733 -0.0452557 0)
(-0.0081708 -0.0449453 0)
(0.0226047 -0.0492688 0)
(0.0191229 -0.0657974 0)
(0.00789953 -0.0651206 0)
(-0.00259788 -0.0583529 0)
(-0.0166101 -0.067915 0)
(-0.00555384 -0.0403136 0)
(0.0261443 -0.0417507 0)
(0.0331534 -0.052723 0)
(0.0258862 -0.0694669 0)
(0.0228993 -0.0741021 0)
(0.0119231 -0.0759033 0)
(0.00886909 -0.0663192 0)
(0.00150307 -0.0650116 0)
(0.0119071 0.0340111 0)
(0.00482531 0.0568207 0)
(-0.0205159 0.06428 0)
(-0.0217958 0.0643304 0)
(-0.00561431 0.0572662 0)
(-0.0264998 0.0548205 0)
(-0.0316737 0.0321599 0)
(-0.0107254 -0.0035705 0)
(0.0127259 0.0109035 0)
(0.0229317 0.0486567 0)
(-0.00277615 0.0537092 0)
(-0.0316069 0.0557697 0)
(-0.0356413 0.0368358 0)
(-0.0101485 -0.00216313 0)
(0.0174561 -0.000291036 0)
(0.0304156 0.0241876 0)
(0.0465372 0.0574524 0)
(0.0357862 0.0575773 0)
(0.00599237 0.0590805 0)
(-0.0257408 0.0553729 0)
(-0.0431891 0.0607113 0)
(-0.042367 0.0453737 0)
(-0.0175656 0.0123629 0)
(0.00823864 0.0107772 0)
(0.0226657 0.0300347 0)
(0.0471134 0.0739373 0)
(0.039399 0.0726514 0)
(0.0134066 0.0769626 0)
(-0.0234389 0.0762324 0)
(-0.0365511 0.0981247 0)
(-0.0114248 0.0317737 0)
(0.0177393 0.0497338 0)
(0.0221769 0.0992254 0)
(-0.0112595 0.118298 0)
(-0.00333531 0.13561 0)
(0.010764 0.140519 0)
(-0.00667301 0.126955 0)
(-0.0174915 0.14882 0)
(-0.00245432 0.0905473 0)
(0.010677 0.150757 0)
(-0.000278432 0.132699 0)
(-0.00716537 0.154885 0)
(-0.00246929 0.136898 0)
(0.000553488 0.149537 0)
(0.000268624 0.154103 0)
(-0.00104127 0.157468 0)
(4.14228e-05 0.158556 0)
(-0.00023438 0.158638 0)
(0.000201694 0.158008 0)
(7.621e-06 0.158727 0)
(0.000336039 0.157903 0)
(0.00042969 0.158506 0)
(0.000406213 0.158443 0)
(0.000667598 0.158426 0)
(0.000933985 0.158013 0)
(0.000822466 0.151788 0)
(0.00202663 0.151258 0)
(0.00153814 0.157147 0)
(0.00347099 0.15793 0)
(0.0024025 0.15138 0)
(-0.0020768 0.157521 0)
(0.00281723 0.144957 0)
(0.014332 0.147444 0)
(-0.00606181 0.112466 0)
(-0.0246167 0.136072 0)
(0.00170284 0.048128 0)
(0.0231883 0.10822 0)
(-0.0190905 0.0836033 0)
(-0.0120839 0.0408601 0)
(0.0162197 0.0354585 0)
(0.0394248 0.0937689 0)
(0.0293108 0.0779645 0)
(-0.00528528 0.0764551 0)
(-0.0291426 0.0715335 0)
(-0.0426494 0.0707048 0)
(-0.0297434 0.0453656 0)
(-0.0122308 0.0141551 0)
(0.0140255 0.0076669 0)
(0.0380226 0.0295277 0)
(0.0504365 0.0593042 0)
(0.03793 0.0550335 0)
(0.00925888 0.0594606 0)
(-0.0238814 0.0557567 0)
(-0.0389165 0.0587587 0)
(-0.0320731 0.042848 0)
(-0.0168736 0.012913 0)
(0.000514038 0.00383707 0)
(0.023142 0.0134361 0)
(0.0340313 0.0545074 0)
(0.0216014 0.0555677 0)
(-0.0207658 0.0528362 0)
(-0.026929 0.0486238 0)
(-0.0107587 -0.0100425 0)
(0.0183866 -0.00703168 0)
(0.0295169 0.0336499 0)
(0.0335071 0.0546121 0)
(0.0382502 0.0646045 0)
(0.0268142 0.064953 0)
(0.0149243 0.054228 0)
(0.00138201 0.0518054 0)
(-0.0148776 -0.0446083 0)
(-0.0106581 -0.000894877 0)
(-0.0126704 -0.0194448 0)
(-0.0156226 -0.0528503 0)
(-0.00500809 -0.0393478 0)
(0.0141816 -0.00306233 0)
(0.00492859 -0.0440846 0)
(-0.00793914 -0.0411539 0)
(0.00281661 -0.039517 0)
(-0.00123916 -0.0122823 0)
(-0.00398145 0.00508658 0)
(-0.0207193 -0.0107919 0)
(-0.00651034 -0.0412453 0)
(-0.000649096 -0.042108 0)
(0.0124025 -0.0363596 0)
(0.0121018 -0.0376196 0)
(0.00244818 -0.0359613 0)
(0.00683084 -0.00941907 0)
(-0.00435772 -0.00791449 0)
(-0.0130291 -0.00883235 0)
(-0.0264642 -0.0278637 0)
(-0.0156298 -0.0459303 0)
(-0.0108915 -0.0362201 0)
(0.00373319 -0.0334564 0)
(0.00977346 -0.0407366 0)
(0.00210644 -0.0628558 0)
(0.00361961 -0.0387002 0)
(-0.000503121 -0.0347737 0)
(-0.00540927 -0.0357804 0)
(-0.00608455 -0.0846162 0)
(-0.0084056 -0.0429942 0)
(0.000964358 -0.0523621 0)
(0.00108664 -0.0724423 0)
(0.00613785 -0.0914197 0)
(0.00238885 -0.12549 0)
(-0.0110437 -0.121738 0)
(-0.00286899 -0.101085 0)
(-0.00254342 -0.134999 0)
(-0.00170208 -0.0847247 0)
(-0.00162568 -0.137387 0)
(-0.00189191 -0.110917 0)
(-0.00147699 -0.13983 0)
(-0.00212337 -0.123624 0)
(0.00085 -0.135848 0)
(0.000213059 -0.138874 0)
(-0.000199416 -0.143187 0)
(0.000411824 -0.144549 0)
(-0.00041269 -0.144624 0)
(0.000126829 -0.144018 0)
(1.04097e-05 -0.144757 0)
(0.000269949 -0.143889 0)
(0.000426904 -0.144519 0)
(0.000404362 -0.144398 0)
(0.000612534 -0.144455 0)
(0.000229774 -0.143932 0)
(9.33438e-05 -0.137795 0)
(0.00268207 -0.137225 0)
(0.00245608 -0.143109 0)
(0.00188951 -0.144008 0)
(0.00208981 -0.135232 0)
(0.00516047 -0.14324 0)
(0.000854055 -0.134356 0)
(-0.00668929 -0.129433 0)
(0.00176374 -0.0827753 0)
(0.0023671 -0.123799 0)
(-0.0057428 -0.0517364 0)
(0.00775137 -0.0835166 0)
(-0.00367731 -0.0526211 0)
(0.00324884 -0.0447378 0)
(0.0131735 -0.0449678 0)
(0.00683519 -0.0801642 0)
(0.00890691 -0.0390086 0)
(0.00380324 -0.0355953 0)
(-8.77884e-05 -0.0360313 0)
(-0.0028454 -0.0491418 0)
(-0.00879895 -0.0506192 0)
(-0.00408847 -0.0367969 0)
(0.011329 -0.0349395 0)
(0.0203958 -0.0399792 0)
(0.0280103 -0.0358869 0)
(0.0194333 -0.0113122 0)
(0.0128636 -0.00858786 0)
(-0.000991351 -0.00524713 0)
(0.00186817 -0.0276366 0)
(-0.005706 -0.0467904 0)
(-0.00963443 -0.0328459 0)
(-0.000957003 -0.0381804 0)
(0.00761969 -0.0380997 0)
(0.0124571 -0.0305097 0)
(0.0163318 0.00387419 0)
(-0.0021726 0.00773751 0)
(0.00440091 -0.0435602 0)
(-0.0104673 -0.043529 0)
(0.0101086 -0.0386313 0)
(-0.025077 -0.0316939 0)
(-0.00805555 -0.0428366 0)
(0.0196115 -0.0309596 0)
(0.0138264 -0.0159849 0)
(0.0136826 -0.00550293 0)
(0.000267383 -0.0108656 0)
(-0.0172346 0.0390794 0)
(-0.00637321 0.0316863 0)
(0.011439 0.0357689 0)
(-0.00439677 0.0391552 0)
(-0.00873395 -0.000449627 0)
(0.0139366 0.0262491 0)
(0.00566382 0.0358518 0)
(0.00224741 -0.0180269 0)
(0.00776808 -0.00954634 0)
(-0.000918057 0.0315403 0)
(-0.00312157 0.0415716 0)
(-0.0123614 0.0349267 0)
(-0.013846 0.00341711 0)
(-0.00416657 -0.0280485 0)
(0.00872153 -0.0222385 0)
(0.0195319 0.0124323 0)
(0.00724389 0.0367096 0)
(-0.00676036 0.035056 0)
(-0.00547932 0.038668 0)
(-0.00873018 0.0371387 0)
(-0.0219806 0.0358299 0)
(-0.0252022 0.01603 0)
(-0.0134365 -0.0116913 0)
(0.000624376 -0.0131781 0)
(0.0125106 0.0122933 0)
(0.00702149 0.0519334 0)
(0.00350032 0.0457996 0)
(0.0124187 0.0450719 0)
(-0.00977037 0.0447141 0)
(-0.0230695 0.0737261 0)
(-0.0110709 0.00799047 0)
(0.00298885 0.0238275 0)
(0.00372711 0.0679615 0)
(0.00870085 0.0847705 0)
(0.00770185 0.110925 0)
(-0.00846134 0.108438 0)
(-0.00582653 0.0930409 0)
(-0.00467159 0.119672 0)
(-0.00243194 0.0626891 0)
(0.00643375 0.1224 0)
(-0.00124512 0.0990857 0)
(-0.00331317 0.125876 0)
(-0.00194208 0.106323 0)
(0.00060331 0.120047 0)
(0.000471713 0.124734 0)
(-0.000715574 0.128616 0)
(-7.57543e-05 0.129924 0)
(-0.000222821 0.130151 0)
(0.000171941 0.129273 0)
(-6.13072e-05 0.130177 0)
(0.000142117 0.129058 0)
(0.000363592 0.129916 0)
(0.000464313 0.129663 0)
(0.000702797 0.129863 0)
(0.000836296 0.129424 0)
(0.000785629 0.121994 0)
(0.00208972 0.121341 0)
(0.00157778 0.128536 0)
(0.00114359 0.129369 0)
(0.00206333 0.121875 0)
(0.000523675 0.128849 0)
(0.000788299 0.120264 0)
(-0.00144048 0.117521 0)
(0.00381984 0.0758674 0)
(-0.0104778 0.110415 0)
(-0.00187484 0.022565 0)
(0.0109318 0.0755608 0)
(-0.00649175 0.0533274 0)
(-0.000295851 0.0135678 0)
(0.0153417 0.0124343 0)
(0.0220514 0.0690954 0)
(0.0134969 0.0460259 0)
(-0.00757801 0.0447433 0)
(-0.00266784 0.044739 0)
(-0.000842231 0.0460025 0)
(-0.0142025 0.0271715 0)
(-0.000283104 -0.0127092 0)
(0.0113255 -0.0164692 0)
(0.0261688 0.00256099 0)
(0.0233023 0.0355017 0)
(0.0134341 0.0351588 0)
(0.0129411 0.0386773 0)
(0.00911505 0.0343726 0)
(0.00546421 0.0365302 0)
(-0.0175096 0.031086 0)
(-0.00516573 -0.00702776 0)
(4.74002e-05 -0.0209574 0)
(0.0122215 -0.0128507 0)
(0.0159143 0.0293209 0)
(0.0118916 0.0392373 0)
(0.0102585 0.0391311 0)
(0.00184618 0.0336547 0)
(-0.00838438 -0.0305729 0)
(0.0142426 -0.0169662 0)
(0.000988779 0.0292319 0)
(-0.00174085 -0.0110996 0)
(0.0167482 0.0248664 0)
(0.0155118 0.0392145 0)
(0.00928022 0.0393584 0)
(0.00125441 0.0385159 0)
(-0.00125261 -0.00250615 0)
(0.00577537 -0.0135389 0)
(0.00509533 -0.00316438 0)
(0.00938373 -0.011343 0)
(0.0094993 -0.0357522 0)
(0.00975449 -0.0021852 0)
(0.0130978 -0.019951 0)
(0.0115921 -0.0336227 0)
(0.00434631 -0.0270562 0)
(-0.00585707 0.00950219 0)
(-0.00460368 0.0236426 0)
(-0.0123814 0.0122965 0)
(-0.00475899 -0.0305127 0)
(-0.00153237 -0.0455657 0)
(0.00410192 -0.0383864 0)
(-0.0020216 -0.0257446 0)
(-0.00841499 -0.0027904 0)
(-0.00943434 0.0125165 0)
(-0.00638073 0.0111124 0)
(-0.00811147 0.0156479 0)
(-0.0158259 -0.001093 0)
(-0.0146599 -0.0316006 0)
(-0.00861935 -0.0341385 0)
(-0.00329567 -0.0320424 0)
(-0.00706469 -0.0300166 0)
(-0.0102963 -0.037814 0)
(-0.00769414 -0.0206635 0)
(0.00329147 -0.00629733 0)
(-0.00928145 -0.00124192 0)
(0.00775807 -0.0615419 0)
(-0.00959415 -0.0329077 0)
(-0.00548744 -0.0364012 0)
(-0.00615305 -0.0492745 0)
(-0.00449346 -0.0651554 0)
(-0.00624996 -0.0932054 0)
(-0.00253552 -0.087559 0)
(-0.00282149 -0.0755257 0)
(-0.0019045 -0.107306 0)
(-0.00192732 -0.062643 0)
(-0.00603587 -0.109958 0)
(-0.00215098 -0.0793268 0)
(-0.00279789 -0.111777 0)
(-0.0011385 -0.095762 0)
(-0.000595456 -0.108044 0)
(-0.00091899 -0.11017 0)
(-0.000695645 -0.114529 0)
(0.0005414 -0.116369 0)
(-0.000385829 -0.116404 0)
(8.17223e-05 -0.115828 0)
(-7.5879e-05 -0.116451 0)
(0.000315177 -0.115603 0)
(0.000397078 -0.116252 0)
(0.000426414 -0.116158 0)
(0.000687077 -0.116197 0)
(0.000540511 -0.115842 0)
(0.000373734 -0.109188 0)
(0.00212278 -0.108462 0)
(0.00241607 -0.114737 0)
(0.00296893 -0.11606 0)
(0.00182273 -0.10801 0)
(0.00529055 -0.114863 0)
(0.00335249 -0.107416 0)
(0.00147184 -0.102437 0)
(0.00324951 -0.0532954 0)
(0.00724266 -0.0957092 0)
(0.00138639 -0.0368853 0)
(0.00491759 -0.0552443 0)
(0.00467984 -0.025563 0)
(0.00671783 -0.0313983 0)
(0.0116155 -0.0337457 0)
(-0.00478212 -0.0560996 0)
(0.0117945 -0.00606617 0)
(-3.93149e-05 -0.00600541 0)
(0.00831879 -0.0174603 0)
(0.0139576 -0.0226978 0)
(0.010991 -0.0369339 0)
(0.00515752 -0.0327338 0)
(0.00882247 -0.0351303 0)
(0.0155892 -0.0301377 0)
(0.0203177 -0.0096259 0)
(0.012541 0.00728993 0)
(0.00930609 0.0122711 0)
(0.0127675 0.0117624 0)
(0.0113671 0.00456069 0)
(0.0136261 -0.0270279 0)
(0.00228179 -0.0296588 0)
(0.00165357 -0.038476 0)
(0.00863976 -0.0357416 0)
(0.011645 -0.0140275 0)
(0.0148339 0.0220726 0)
(0.0080392 0.0259368 0)
(0.0116481 -0.00835766 0)
(0.000486686 -0.0434963 0)
(0.00291113 -0.0353434 0)
(-0.00178881 0.00178744 0)
(0.00269859 -0.041409 0)
(0.00388535 -0.029894 0)
(0.00495001 0.0104506 0)
(0.00432977 0.0253823 0)
(-0.000863224 0.0146418 0)
(0.00693119 0.0199445 0)
(0.0115657 0.0162614 0)
(0.0149155 0.018376 0)
(0.0159523 0.0196056 0)
(0.00743087 -0.0133534 0)
(0.0102691 0.0139821 0)
(0.00511378 0.0228142 0)
(0.00853921 -0.0191718 0)
(0.00543968 -0.00545205 0)
(-0.00294887 0.029015 0)
(-0.00499715 0.0360401 0)
(-0.00917838 0.0255743 0)
(-0.00693606 -0.0143504 0)
(-0.00216017 -0.0397797 0)
(-0.000583859 -0.0324501 0)
(0.00109446 0.0112799 0)
(-0.0156389 0.0260188 0)
(-0.0123365 0.0242377 0)
(-0.00390983 0.0254532 0)
(-0.00642284 0.0287009 0)
(-0.00809618 0.0244971 0)
(-0.0170279 0.000127347 0)
(-0.00986769 -0.024544 0)
(-0.00400618 -0.0233158 0)
(0.00104516 0.00493489 0)
(-0.00959169 0.0330749 0)
(0.00142049 0.0290923 0)
(-0.000334903 0.0274544 0)
(-0.00459913 0.0267193 0)
(0.000914539 0.0534413 0)
(-0.00954859 -0.00185326 0)
(0.000382891 0.00618937 0)
(0.00125088 0.0480165 0)
(0.0100146 0.0620642 0)
(-0.000690576 0.0822435 0)
(-0.0112062 0.0800234 0)
(-0.00193838 0.0705502 0)
(-0.00260419 0.0924723 0)
(-0.00221974 0.042353 0)
(0.00226896 0.0958867 0)
(-0.00183183 0.0719057 0)
(-0.000600529 0.0991091 0)
(-0.000913144 0.0795167 0)
(0.000467875 0.0930289 0)
(-3.03746e-05 0.0975118 0)
(-0.000352998 0.100568 0)
(1.58651e-05 0.10262 0)
(-0.000272015 0.102817 0)
(4.66905e-05 0.101997 0)
(-8.8422e-05 0.102671 0)
(0.000197068 0.101658 0)
(0.000344498 0.102419 0)
(0.000477492 0.102296 0)
(0.000618292 0.102364 0)
(0.000891445 0.102353 0)
(0.000974544 0.0941727 0)
(0.0015491 0.0933681 0)
(0.00165409 0.10121 0)
(0.000414142 0.102245 0)
(0.00151121 0.0959621 0)
(0.00350807 0.101528 0)
(0.00135586 0.0947724 0)
(-0.0089767 0.0918452 0)
(0.00217613 0.0523523 0)
(-0.00273268 0.0851234 0)
(2.72265e-05 0.00690058 0)
(0.00666968 0.0522862 0)
(0.000648867 0.03421 0)
(0.0032637 -0.00359099 0)
(0.0129286 0.00194351 0)
(-0.00034744 0.047747 0)
(0.00350224 0.0276292 0)
(0.00519782 0.0274402 0)
(0.0014246 0.0268272 0)
(0.0142982 0.0279132 0)
(-0.00215321 0.0198882 0)
(0.00606049 -0.022252 0)
(0.00907356 -0.0282829 0)
(0.0169745 -0.0130087 0)
(0.0154608 0.0215578 0)
(0.00718874 0.0297804 0)
(0.00375971 0.025473 0)
(0.0118546 0.024873 0)
(0.0225373 0.024098 0)
(0.00844055 0.0227779 0)
(0.00354964 -0.0103843 0)
(0.00229374 -0.0334423 0)
(0.00978221 -0.0272049 0)
(0.00893546 0.0143665 0)
(0.0111378 0.0311456 0)
(0.0129084 0.0346718 0)
(0.0113527 0.0226851 0)
(-0.000451579 -0.0303252 0)
(0.00412549 -0.0254339 0)
(0.0025139 0.0192424 0)
(0.00139666 -0.0278602 0)
(0.000511707 0.0137493 0)
(-0.0062448 0.0262339 0)
(-0.000421869 0.0343803 0)
(-0.00173296 0.030259 0)
(0.014209 -0.0144183 0)
(0.0197594 -0.0131033 0)
(0.0191058 6.02283e-05 0)
(0.0135849 0.0056879 0)
(0.00935206 -0.0235741 0)
(0.00930108 0.00539067 0)
(-0.000571643 -0.0106285 0)
(0.0146033 -0.0298276 0)
(0.00523641 -0.0163185 0)
(-0.00540136 0.0258786 0)
(-0.00377539 0.0348628 0)
(-0.0069083 0.0193989 0)
(-0.00469459 -0.0280721 0)
(-0.00205094 -0.0466257 0)
(-0.00563493 -0.033795 0)
(-0.0171101 -0.0121896 0)
(-0.0144212 0.0124858 0)
(-0.0121129 0.0123621 0)
(-0.00439738 0.0144716 0)
(-0.00864393 0.0234658 0)
(-0.00400641 0.012929 0)
(-0.00892795 -0.0232066 0)
(-0.00764832 -0.034192 0)
(-0.00640623 -0.0301113 0)
(-0.0119055 -0.0223294 0)
(-0.0168806 -0.0233555 0)
(-0.0123047 -0.0161466 0)
(-0.00646211 0.00603926 0)
(-0.00767018 0.00803799 0)
(-0.000240478 -0.0432036 0)
(-0.00601448 -0.0248548 0)
(-0.00631931 -0.0269826 0)
(-0.00963136 -0.0367192 0)
(-0.00929829 -0.0474474 0)
(-0.00689677 -0.0633971 0)
(-5.15941e-05 -0.064933 0)
(-0.00477816 -0.0591336 0)
(-0.00244887 -0.0833214 0)
(-0.0021784 -0.0471689 0)
(-0.00638087 -0.086481 0)
(-0.00217854 -0.0575813 0)
(-0.00330517 -0.0885622 0)
(-0.0008231 -0.0730218 0)
(-0.00163684 -0.084855 0)
(-0.00145073 -0.0859978 0)
(-0.00102676 -0.0897773 0)
(0.000412905 -0.0918622 0)
(-0.000314823 -0.0921693 0)
(5.12818e-05 -0.0913722 0)
(-8.95597e-05 -0.092136 0)
(0.000280504 -0.0910934 0)
(0.000388843 -0.0919564 0)
(0.000486339 -0.0916471 0)
(0.000727794 -0.0919209 0)
(0.000822755 -0.0916251 0)
(0.000658844 -0.0850876 0)
(0.00178626 -0.0839992 0)
(0.00197935 -0.0903868 0)
(0.00358681 -0.0918195 0)
(0.00193651 -0.0862491 0)
(0.00370537 -0.0909147 0)
(0.00345201 -0.0810819 0)
(0.00871745 -0.0807278 0)
(0.00397581 -0.0381299 0)
(0.00935456 -0.0731322 0)
(0.00522069 -0.0280269 0)
(0.00369876 -0.0385272 0)
(0.00879575 -0.0122311 0)
(0.00709666 -0.0239551 0)
(0.0056029 -0.0246932 0)
(0.00397338 -0.0355433 0)
(0.00649072 0.00242961 0)
(0.0108485 0.00536166 0)
(0.012857 -0.0118544 0)
(0.0176399 -0.00991432 0)
(0.0174631 -0.0274571 0)
(0.00955518 -0.0311314 0)
(0.00785783 -0.0346855 0)
(0.0095289 -0.0263997 0)
(0.00607295 0.00485277 0)
(0.00950858 0.0210953 0)
(0.00559518 0.0161762 0)
(0.0132856 0.0102593 0)
(0.0182793 0.0126996 0)
(0.0162307 -0.00582151 0)
(0.0152615 -0.0220264 0)
(0.0046812 -0.035675 0)
(0.00882302 -0.0359789 0)
(0.00493903 -0.00661302 0)
(0.0110682 0.0236039 0)
(0.012158 0.0289513 0)
(0.0117566 0.0101862 0)
(0.00474178 -0.0344067 0)
(0.00217901 -0.0337803 0)
(0.00439698 0.00893228 0)
(-0.00246417 -0.0346294 0)
(-0.00411421 -0.0145931 0)
(-0.00808996 0.0178958 0)
(-0.002043 0.0263811 0)
(-0.00170984 0.0215134 0)
(0.00845851 -0.021963 0)
(0.011601 0.0055018 0)
(0.0116514 0.0180822 0)
(0.00342859 0.0222516 0)
(0.00358424 -0.0163917 0)
(0.00612871 0.0185233 0)
(-0.00151961 0.013013 0)
(0.00930972 -0.0278814 0)
(-0.00319396 0.00656913 0)
(-0.00943511 0.0292645 0)
(-0.00506873 0.0334763 0)
(-0.00134645 0.0229194 0)
(-0.00308639 -0.0208673 0)
(-0.0025924 -0.0424861 0)
(-0.00643404 -0.0277879 0)
(-0.0130919 0.0110956 0)
(-0.0190622 0.0187476 0)
(-0.0131917 0.0170127 0)
(-0.00607094 0.0204318 0)
(-0.0067617 0.0256386 0)
(0.00156839 0.0171702 0)
(-0.00888318 -0.00307301 0)
(-0.00580892 -0.0297702 0)
(-0.00776782 -0.0273656 0)
(-0.00307778 0.00447991 0)
(-0.0107768 0.0221404 0)
(-0.00937757 0.0210682 0)
(-0.0109689 0.0188911 0)
(0.00125624 0.019088 0)
(0.00434798 0.0383548 0)
(-0.00738366 -0.00583829 0)
(-0.000236931 -0.00246691 0)
(-0.000433237 0.0363738 0)
(0.00183224 0.0468518 0)
(-0.00184853 0.0596796 0)
(-0.0043168 0.0612209 0)
(-0.000714837 0.0556181 0)
(-0.00459782 0.0706443 0)
(-0.00241072 0.0293701 0)
(-0.000111447 0.0745828 0)
(-0.00196796 0.053952 0)
(0.00011442 0.0777848 0)
(-0.00106455 0.0593314 0)
(0.000535468 0.0723063 0)
(-0.000343486 0.0758743 0)
(-7.71442e-05 0.0776731 0)
(6.96367e-05 0.080118 0)
(-0.000268934 0.08076 0)
(1.16512e-05 0.079568 0)
(-9.36685e-05 0.0804523 0)
(0.000194616 0.0791529 0)
(0.00038746 0.0802282 0)
(0.000545578 0.0798032 0)
(0.000540701 0.0801665 0)
(0.000849621 0.0801552 0)
(0.000872432 0.0722799 0)
(0.00159344 0.0709204 0)
(0.0018833 0.0789984 0)
(0.00159516 0.0801106 0)
(0.00181754 0.075859 0)
(0.00310864 0.0795954 0)
(0.00128293 0.0718468 0)
(-0.00842057 0.0718592 0)
(-5.08305e-05 0.0393262 0)
(-5.06046e-05 0.0659674 0)
(0.00183278 -0.000149794 0)
(0.00354039 0.0382724 0)
(0.00443739 0.0243735 0)
(0.00488963 -0.0107526 0)
(0.0100246 -0.00304636 0)
(0.000148306 0.0323115 0)
(-0.00465136 0.0193873 0)
(0.0145409 0.0184829 0)
(0.0133094 0.0189324 0)
(0.0153886 0.0186449 0)
(0.00495813 0.0177979 0)
(0.00963283 -0.0233525 0)
(0.00665186 -0.0323702 0)
(0.00962545 -0.0161537 0)
(0.00177789 0.013421 0)
(0.00736676 0.0236137 0)
(0.00655397 0.0199341 0)
(0.0149054 0.013331 0)
(0.0224454 0.0191249 0)
(0.018225 0.0158359 0)
(0.0118521 -0.00653697 0)
(0.00676911 -0.034364 0)
(0.00952257 -0.0305466 0)
(0.00333405 0.00811746 0)
(0.00578681 0.0227604 0)
(0.0111402 0.0320144 0)
(0.00891124 0.0233371 0)
(0.00596699 -0.0255031 0)
(0.00110903 -0.0296861 0)
(0.00112237 0.0200544 0)
(-0.0020349 -0.0249965 0)
(-0.00798435 0.0135133 0)
(-0.0141236 0.0204388 0)
(-0.00772111 0.0251958 0)
(-0.00115957 0.020378 0)
(0.00325909 -0.0319605 0)
(0.00536997 -0.0120171 0)
(0.00375465 0.01186 0)
(-0.000559171 0.0187089 0)
(0.00183957 -0.0239367 0)
(-0.000848117 0.0152589 0)
(-0.000156214 -0.0104928 0)
(0.00817265 -0.0245005 0)
(-0.0070683 0.000900069 0)
(-0.00915887 0.0278752 0)
(-0.0080026 0.0295177 0)
(0.000790593 0.0197036 0)
(-0.00527504 -0.0252957 0)
(-0.00196854 -0.0422906 0)
(-0.00880423 -0.0272476 0)
(-0.0127645 -0.000560651 0)
(-0.016609 0.0145048 0)
(-0.0146557 0.0076878 0)
(-0.00790326 0.012994 0)
(-0.00632391 0.021909 0)
(0.00348053 0.0188711 0)
(-0.00719843 -0.017619 0)
(-0.00630032 -0.0314472 0)
(-0.00792732 -0.0267715 0)
(-0.0124526 -0.0182427 0)
(-0.0151514 -0.0128314 0)
(-0.0139096 -0.0124251 0)
(-0.0121244 0.0071414 0)
(-0.00465319 0.0071794 0)
(-0.00344658 -0.0284336 0)
(-0.00241127 -0.0201473 0)
(-0.0070589 -0.0216837 0)
(-0.0111554 -0.0269422 0)
(-0.0097241 -0.0354769 0)
(-0.00741082 -0.0457 0)
(-0.00144671 -0.0501397 0)
(-0.0058254 -0.0457552 0)
(-0.00143834 -0.0637119 0)
(-0.00243793 -0.0367651 0)
(-0.00598236 -0.0674521 0)
(-0.00225667 -0.0429462 0)
(-0.00376645 -0.0695925 0)
(-0.000532314 -0.0561778 0)
(-0.00273029 -0.0662026 0)
(-0.0013783 -0.0671526 0)
(-0.00101638 -0.0691826 0)
(0.000102762 -0.0720004 0)
(-0.000359302 -0.0720107 0)
(0.000105979 -0.0715269 0)
(-4.56854e-05 -0.0719218 0)
(0.000259701 -0.0712568 0)
(0.000237211 -0.0717653 0)
(0.0006292 -0.0717078 0)
(0.000786929 -0.0717331 0)
(0.000654816 -0.0718353 0)
(0.00098591 -0.0655077 0)
(0.00163224 -0.0644649 0)
(0.00194267 -0.0704488 0)
(0.00349217 -0.0716959 0)
(0.00230545 -0.0681894 0)
(0.00340019 -0.0711009 0)
(0.0032726 -0.0599404 0)
(0.0105443 -0.0627792 0)
(0.00418923 -0.0298133 0)
(0.0101171 -0.0574216 0)
(0.00680127 -0.0227458 0)
(0.00348013 -0.0291751 0)
(0.0105022 -0.00617586 0)
(0.00719237 -0.019598 0)
(0.00204489 -0.0197322 0)
(0.00550789 -0.0190216 0)
(0.00436979 0.00191918 0)
(0.0137247 0.0042619 0)
(0.0148278 -0.00781179 0)
(0.0155662 -0.00199853 0)
(0.0169943 -0.021686 0)
(0.0107592 -0.0290159 0)
(0.00692209 -0.0314973 0)
(0.00885023 -0.0224465 0)
(-1.32469e-05 0.0108087 0)
(0.0049519 0.0220007 0)
(0.00941408 0.0150286 0)
(0.0177287 0.00551663 0)
(0.0189974 0.013248 0)
(0.0174517 0.00526286 0)
(0.015719 -0.0146424 0)
(0.0062271 -0.0329139 0)
(0.00855847 -0.0325292 0)
(-0.000317912 -0.000106447 0)
(0.00819638 0.0206139 0)
(0.00867096 0.030904 0)
(0.00797751 0.016107 0)
(0.00480002 -0.0277316 0)
(-0.0021656 -0.0273955 0)
(0.00196536 0.019364 0)
(-0.00405186 -0.0258412 0)
(-0.00687879 0.00245782 0)
(-0.00784853 0.0204478 0)
(-0.00948528 0.0145785 0)
(-0.0014898 0.0149203 0)
(0.00261894 -0.0331459 0)
(-0.00156971 0.00202507 0)
(-0.00482574 0.0215712 0)
(-0.00377998 0.0212575 0)
(-0.00203106 -0.0189249 0)
(-0.0067543 0.0195852 0)
(-0.00178918 0.00115816 0)
(0.000731976 -0.023831 0)
(-0.00835244 0.0156619 0)
(-0.0104102 0.0320443 0)
(-0.00560321 0.0258621 0)
(0.00309479 0.0212592 0)
(-0.0069898 -0.020394 0)
(-0.00166528 -0.0424327 0)
(-0.00707877 -0.023387 0)
(-0.0109968 0.0119201 0)
(-0.0164438 0.0184144 0)
(-0.016414 0.0108031 0)
(-0.00794941 0.0164104 0)
(-0.000664153 0.0188033 0)
(0.00244511 0.0162873 0)
(-0.00551507 -0.000962828 0)
(-0.00504981 -0.0310123 0)
(-0.00662644 -0.0283824 0)
(-0.00184744 0.00470415 0)
(-0.0113373 0.0161956 0)
(-0.0149953 0.0174301 0)
(-0.0143512 0.0134453 0)
(0.00329277 0.0143926 0)
(0.0016631 0.027556 0)
(-0.00519737 -0.00743564 0)
(-0.00124204 -0.00572501 0)
(-0.00209915 0.0282954 0)
(-0.00171132 0.0364826 0)
(-0.00151118 0.0448867 0)
(-0.00156674 0.0480885 0)
(-0.00186313 0.0436722 0)
(-0.00499108 0.0529338 0)
(-0.00259714 0.0208676 0)
(-0.00187596 0.0575281 0)
(-0.00209142 0.0414572 0)
(-0.00020829 0.0602395 0)
(-0.00134678 0.0447363 0)
(0.000296865 0.055662 0)
(-0.000646628 0.0591267 0)
(-3.50844e-05 0.058874 0)
(0.000171386 0.0622063 0)
(-0.000388976 0.0625662 0)
(-1.52818e-05 0.0616584 0)
(5.77429e-06 0.0621722 0)
(0.000133545 0.0612792 0)
(0.000424089 0.0619652 0)
(0.000708101 0.0618372 0)
(0.000554555 0.0619879 0)
(0.000649656 0.0623292 0)
(0.000698259 0.0547327 0)
(0.00161448 0.0534682 0)
(0.00249711 0.0608086 0)
(0.00185656 0.0619093 0)
(0.00190311 0.0594271 0)
(0.0021126 0.0617264 0)
(0.00160079 0.0542459 0)
(-0.00338694 0.0558242 0)
(0.00151952 0.0313543 0)
(-0.000226688 0.051558 0)
(0.00246996 -0.00336148 0)
(0.00259481 0.0293884 0)
(0.00579886 0.0190722 0)
(0.00562769 -0.012788 0)
(0.00679113 -0.00535773 0)
(0.00373392 0.0218754 0)
(-0.00283706 0.0147398 0)
(0.013764 0.0128286 0)
(0.0142765 0.0152295 0)
(0.0147256 0.0144257 0)
(0.0074142 0.0166028 0)
(0.0089286 -0.0221889 0)
(0.00646536 -0.0335241 0)
(0.00754257 -0.0148082 0)
(0.00147529 0.0141844 0)
(-0.00255011 0.0179355 0)
(0.00826535 0.0129533 0)
(0.0192559 0.00910295 0)
(0.0189569 0.0181814 0)
(0.0153584 0.014708 0)
(0.0133436 -0.00117686 0)
(0.00572055 -0.0307981 0)
(0.00992003 -0.0276604 0)
(-0.00286614 0.00544373 0)
(0.00326632 0.0161477 0)
(0.0117394 0.0313311 0)
(0.00899227 0.0234197 0)
(0.00471356 -0.0173354 0)
(5.708e-05 -0.029908 0)
(0.00357165 0.0183527 0)
(-0.00161694 -0.0171706 0)
(-0.00355576 0.0128605 0)
(-0.00430677 0.0218852 0)
(-0.00899226 0.0166583 0)
(-0.00350346 0.00779089 0)
(0.00150695 -0.0316909 0)
(-0.00651484 -0.00120631 0)
(-0.00673923 0.0165433 0)
(-0.004342 0.016198 0)
(-0.00165767 -0.0193423 0)
(-0.013141 0.0150135 0)
(-0.00144262 -0.0140246 0)
(-0.00160105 -0.0195896 0)
(-0.0099599 0.0111557 0)
(-0.00953622 0.0269274 0)
(-0.00341632 0.0218837 0)
(0.00425342 0.0209805 0)
(-0.00331937 -0.0216185 0)
(-0.00169173 -0.042591 0)
(-0.00921402 -0.0212363 0)
(-0.00825529 0.00498194 0)
(-0.0141858 0.0185543 0)
(-0.0152229 0.00594768 0)
(-0.00937745 0.00531466 0)
(0.00528004 0.0195588 0)
(0.000174056 0.0174997 0)
(-0.00476354 -0.0132487 0)
(-0.00433828 -0.0317068 0)
(-0.00897786 -0.0265454 0)
(-0.0127594 -0.0146773 0)
(-0.0125255 -0.00366231 0)
(-0.0135482 -0.00898362 0)
(-0.0116624 0.00339316 0)
(-0.00588768 0.00375569 0)
(-0.00495961 -0.017822 0)
(-0.00161887 -0.017537 0)
(-0.0074616 -0.018324 0)
(-0.0109565 -0.019365 0)
(-0.00971573 -0.0278659 0)
(-0.00789044 -0.0354919 0)
(-0.00232325 -0.0392161 0)
(-0.00529541 -0.0343834 0)
(-0.000644273 -0.0485663 0)
(-0.00264971 -0.029553 0)
(-0.00553192 -0.0521124 0)
(-0.0018408 -0.0330259 0)
(-0.00316939 -0.0539782 0)
(-0.00087192 -0.0434519 0)
(-0.00325258 -0.051522 0)
(-0.00130661 -0.0521976 0)
(-0.0013281 -0.0528725 0)
(-0.000370351 -0.0557042 0)
(-0.000306058 -0.0558406 0)
(-9.69065e-05 -0.0552642 0)
(0.000240309 -0.0557444 0)
(0.00025585 -0.0550539 0)
(0.000356791 -0.0556952 0)
(0.000460211 -0.0554217 0)
(0.000764901 -0.0555703 0)
(0.00166438 -0.0556019 0)
(0.00150142 -0.0503336 0)
(0.00135797 -0.0491301 0)
(0.000533861 -0.0543651 0)
(0.00272482 -0.0552361 0)
(0.00313118 -0.0532565 0)
(0.00376686 -0.0552062 0)
(0.00309502 -0.0449856 0)
(0.0102428 -0.0488686 0)
(0.00344518 -0.0232826 0)
(0.00940496 -0.0454377 0)
(0.00798997 -0.0194876 0)
(0.0041956 -0.0238113 0)
(0.0106372 -0.00352243 0)
(0.00709817 -0.0171056 0)
(0.00243014 -0.0172523 0)
(0.00685024 -0.00910093 0)
(0.00774717 0.000187331 0)
(0.0109611 0.000671068 0)
(0.0138767 -0.0056385 0)
(0.0128858 0.00257917 0)
(0.0149642 -0.0167638 0)
(0.0120525 -0.0269527 0)
(0.00751095 -0.0311976 0)
(0.00704372 -0.0197343 0)
(0.00490155 0.0145349 0)
(-0.0010837 0.0199941 0)
(0.00970665 0.0042292 0)
(0.0103258 -0.000633425 0)
(0.0163372 0.0155178 0)
(0.0133153 0.00939516 0)
(0.0137012 -0.00878425 0)
(0.00872005 -0.030102 0)
(0.00785552 -0.0272629 0)
(0.00406072 0.00800072 0)
(0.00125395 0.00875786 0)
(0.0103289 0.0268744 0)
(0.0083077 0.0236677 0)
(0.00906867 -0.0201354 0)
(0.00185389 -0.026499 0)
(0.00283648 0.019792 0)
(-0.00279372 -0.0203167 0)
(0.00237883 0.00705343 0)
(-0.00432459 0.0252526 0)
(-0.00966651 0.016221 0)
(-0.00334591 0.00195855 0)
(0.00161051 -0.0304819 0)
(-0.000971743 0.0105433 0)
(-0.00452576 0.0178882 0)
(-0.0080945 0.0147511 0)
(-0.00318477 -0.0121648 0)
(-0.00937227 0.0206157 0)
(-0.0062998 -0.0137368 0)
(-0.0066904 -0.0149316 0)
(-0.00905514 0.0196918 0)
(-0.0116201 0.0261046 0)
(-0.00783918 0.0147627 0)
(0.00408164 0.020719 0)
(-0.0039197 -0.0175289 0)
(-0.00220765 -0.0374685 0)
(-0.0058264 -0.0194551 0)
(-0.00857939 0.0149521 0)
(-0.0147872 0.0230067 0)
(-0.0128242 0.00792391 0)
(-0.0134678 0.00628783 0)
(0.00249762 0.013605 0)
(0.00200596 0.0254409 0)
(-0.00459864 -0.000193988 0)
(-0.00477314 -0.0271975 0)
(-0.00674375 -0.0261677 0)
(-0.00418472 0.00457397 0)
(-0.0101031 0.0129227 0)
(-0.0135206 0.0152623 0)
(-0.0121862 0.0100164 0)
(0.000721328 0.0114878 0)
(-0.00212969 0.0199675 0)
(-0.00353369 -0.00819247 0)
(-0.00221362 -0.00657067 0)
(-0.00310103 0.0225472 0)
(-0.00247935 0.0293624 0)
(-0.00185499 0.0348699 0)